
                                 *****************
                                 * O   R   C   A *
                                 *****************

           --- An Ab Initio, DFT and Semiempirical electronic structure package ---

                  #######################################################
                  #                        -***-                        #
                  #          Department of theory and spectroscopy      #
                  #               Directorship: Frank Neese             #
                  #        Max Planck Institute fuer Kohlenforschung    #
                  #                Kaiser Wilhelm Platz 1               #
                  #                 D-45470 Muelheim/Ruhr               #
                  #                      Germany                        #
                  #                                                     #
                  #                  All rights reserved                #
                  #                        -***-                        #
                  #######################################################


                         Program Version 4.2.1 -  RELEASE  -


 With contributions from (in alphabetic order):
   Daniel Aravena         : Magnetic Suceptibility
   Michael Atanasov       : Ab Initio Ligand Field Theory (pilot matlab implementation)
   Alexander A. Auer      : GIAO ZORA, VPT2
   Ute Becker             : Parallelization
   Giovanni Bistoni       : ED, misc. LED, open-shell LED, HFLD
   Martin Brehm           : Molecular dynamics
   Dmytro Bykov           : SCF Hessian
   Vijay G. Chilkuri      : MRCI spin determinant printing, contributions to CSF-ICE
   Dipayan Datta          : RHF DLPNO-CCSD density
   Achintya Kumar Dutta   : EOM-CC, STEOM-CC
   Dmitry Ganyushin       : Spin-Orbit,Spin-Spin,Magnetic field MRCI
   Miquel Garcia          : C-PCM Hessian, Gaussian charge scheme
   Yang Guo               : DLPNO-NEVPT2, CIM, IAO-localization
   Andreas Hansen         : Spin unrestricted coupled pair/coupled cluster methods
   Benjamin Helmich-Paris : CASSCF linear response (MC-RPA)
   Lee Huntington         : MR-EOM, pCC
   Robert Izsak           : Overlap fitted RIJCOSX, COSX-SCS-MP3, EOM
   Christian Kollmar      : KDIIS, OOCD, Brueckner-CCSD(T), CCSD density
   Simone Kossmann        : Meta GGA functionals, TD-DFT gradient, OOMP2, MP2 Hessian
   Martin Krupicka        : AUTO-CI
   Lucas Lang             : DCDCAS
   Dagmar Lenk            : GEPOL surface, SMD
   Dimitrios Liakos       : Extrapolation schemes; Compound Job, initial MDCI parallelization
   Dimitrios Manganas     : Further ROCIS development; embedding schemes
   Dimitrios Pantazis     : SARC Basis sets
   Taras Petrenko         : DFT Hessian,TD-DFT gradient, ASA, ECA, R-Raman, ABS, FL, XAS/XES, NRVS
   Peter Pinski           : DLPNO-MP2, DLPNO-MP2 Gradient
   Christoph Reimann      : Effective Core Potentials
   Marius Retegan         : Local ZFS, SOC
   Christoph Riplinger    : Optimizer, TS searches, QM/MM, DLPNO-CCSD(T), (RO)-DLPNO pert. Triples
   Tobias Risthaus        : Range-separated hybrids, TD-DFT gradient, RPA, STAB
   Michael Roemelt        : Original ROCIS implementation
   Masaaki Saitow         : Open-shell DLPNO-CCSD energy and density
   Barbara Sandhoefer     : DKH picture change effects
   Avijit Sen             : IP-ROCIS
   Kantharuban Sivalingam : CASSCF convergence, NEVPT2, FIC-MRCI
   Bernardo de Souza      : ESD, SOC TD-DFT
   Georgi Stoychev        : AutoAux, RI-MP2 NMR
   Willem Van den Heuvel  : Paramagnetic NMR
   Boris Wezisla          : Elementary symmetry handling
   Frank Wennmohs         : Technical directorship


 We gratefully acknowledge several colleagues who have allowed us to
 interface, adapt or use parts of their codes:
   Stefan Grimme, W. Hujo, H. Kruse,             : VdW corrections, initial TS optimization,
                  C. Bannwarth                     DFT functionals, gCP, sTDA/sTD-DF
   Ed Valeev, F. Pavosevic, A. Kumar             : LibInt (2-el integral package), F12 methods
   Garnet Chan, S. Sharma, J. Yang, R. Olivares  : DMRG
   Ulf Ekstrom                                   : XCFun DFT Library
   Mihaly Kallay                                 : mrcc  (arbitrary order and MRCC methods)
   Andreas Klamt, Michael Diedenhofen            : otool_cosmo (COSMO solvation model)
   Jiri Pittner, Ondrej Demel                    : Mk-CCSD
   Frank Weinhold                                : gennbo (NPA and NBO analysis)
   Christopher J. Cramer and Donald G. Truhlar   : smd solvation model
   Lars Goerigk                                  : TD-DFT with DH, B97 family of functionals
   V. Asgeirsson, H. Jonsson                     : NEB implementation
   FAccTs GmbH                                   : IRC, NEB, NEB-TS, Multilevel, MM, QM/MM, CI optimization
   S Lehtola, MJT Oliveira, MAL Marques          : LibXC Library


 Your calculation uses the libint2 library for the computation of 2-el integrals
 For citations please refer to: http://libint.valeyev.net

 Your ORCA version has been built with support for libXC version: 4.2.3
 For citations please refer to: https://tddft.org/programs/libxc/

 This ORCA versions uses:
   CBLAS   interface :  Fast vector & matrix operations
   LAPACKE interface :  Fast linear algebra routines
   SCALAPACK package :  Parallel linear algebra routines


----- Orbital basis set information -----
Your calculation utilizes the basis: 6-311+G(d,p)
   H, Li - Ne  : R. Krishnan, J. S. Binkley, R. Seeger and J. A. Pople, J. Chem. Phys. 72, 650 (1980).
   Na - Ar     : A. D. McLean and G. S. Chandler J. Chem. Phys. 72, 5639, (1980).
   K  - Ca     : J.-P. Blaudeau, M. P. McGrath, L. A. Curtiss and L. Radom, J. Chem. Phys. 107, 5016 (1997).
   Ga - Kr     : L. A. Curtiss, M. P. McGrath, J.-P. Blandeau, N. E. Davis, R. C. Binning and L. Radom, J. Chem. Phys. 103, 6104 (1995).
   Pol./Diff.
   H, Li - Cl  : T. Clark, J. Chandrasekhar and P. v. R. Schleyer, J. Comp. Chem. 4, 294 (1983).
   H - Ne      : M. J. Frisch, J. A. Pople and J. S. Binkley, J. Chem. Phys. 80, 3265 (1984).

================================================================================
                                        WARNINGS
                       Please study these warnings very carefully!
================================================================================


WARNING: Geometry Optimization
  ===> : Switching off AutoStart
         For restart on a previous wavefunction, please use MOREAD

INFO   : the flag for use of LIBINT has been found!

================================================================================
                                       INPUT FILE
================================================================================
NAME = ben.inp
|  1> ! B3LYP 6-311+G(d,p) Opt 
|  2> 
|  3> ! Normalprint
|  4> %output
|  5> Print[P_Basis] 2
|  6> Print[P_MOs] 1
|  7> end
|  8> 
|  9> * xyz 0 1
| 10>    C       -6.43508        0.46988        0.00000
| 11>    C       -5.03818        0.54737       -0.00000
| 12>    C       -4.27263       -0.62364       -0.00000
| 13>    H       -4.54975        1.51323       -0.00000
| 14>    C       -7.06642       -0.77860        0.00000
| 15>    H       -7.02732        1.37581        0.00000
| 16>    C       -6.30087       -1.94961        0.00000
| 17>    H       -8.14710       -0.83854        0.00000
| 18>    C       -4.90398       -1.87213        0.00000
| 19>    H       -3.19195       -0.56370       -0.00000
| 20>    H       -6.78930       -2.91548        0.00000
| 21>    H       -4.31173       -2.77805        0.00000
| 22> *
| 23> 
| 24>                          ****END OF INPUT****
================================================================================

                       *****************************
                       * Geometry Optimization Run *
                       *****************************

Geometry optimization settings:
Update method            Update   .... BFGS
Choice of coordinates    CoordSys .... Z-matrix Internals
Initial Hessian          InHess   .... Almoef's Model

Convergence Tolerances:
Energy Change            TolE     ....  5.0000e-06 Eh
Max. Gradient            TolMAXG  ....  3.0000e-04 Eh/bohr
RMS Gradient             TolRMSG  ....  1.0000e-04 Eh/bohr
Max. Displacement        TolMAXD  ....  4.0000e-03 bohr
RMS Displacement         TolRMSD  ....  2.0000e-03 bohr
Strict Convergence                ....  False
------------------------------------------------------------------------------
                        ORCA OPTIMIZATION COORDINATE SETUP
------------------------------------------------------------------------------

The optimization will be done in new redundant internal coordinates
Making redundant internal coordinates   ...  (new redundants) done
Evaluating the initial hessian          ...  (Almloef) done
Evaluating the coordinates              ...  done
Calculating the B-matrix                .... done
Calculating the G-matrix                .... done
Diagonalizing the G-matrix              .... done
The first mode is                       ....   24
The number of degrees of freedom        ....   30

    -----------------------------------------------------------------
                    Redundant Internal Coordinates


    -----------------------------------------------------------------
         Definition                    Initial Value    Approx d2E/dq
    -----------------------------------------------------------------
      1. B(C   1,C   0)                  1.3990         0.604371   
      2. B(C   2,C   1)                  1.3990         0.604373   
      3. B(H   3,C   1)                  1.0823         0.370384   
      4. B(C   4,C   0)                  1.3990         0.604404   
      5. B(H   5,C   0)                  1.0823         0.370379   
      6. B(C   6,C   4)                  1.3990         0.604373   
      7. B(H   7,C   4)                  1.0823         0.370376   
      8. B(C   8,C   6)                  1.3990         0.604394   
      9. B(C   8,C   2)                  1.3990         0.604374   
     10. B(H   9,C   2)                  1.0823         0.370376   
     11. B(H  10,C   6)                  1.0823         0.370372   
     12. B(H  11,C   8)                  1.0823         0.370383   
     13. A(C   1,C   0,H   5)          119.9990         0.353065   
     14. A(C   4,C   0,H   5)          120.0007         0.353068   
     15. A(C   1,C   0,C   4)          120.0002         0.430105   
     16. A(C   0,C   1,C   2)          119.9996         0.430101   
     17. A(C   0,C   1,H   3)          120.0006         0.353066   
     18. A(C   2,C   1,H   3)          119.9998         0.353066   
     19. A(C   8,C   2,H   9)          120.0000         0.353065   
     20. A(C   1,C   2,H   9)          120.0001         0.353065   
     21. A(C   1,C   2,C   8)          120.0000         0.430102   
     22. A(C   0,C   4,C   6)          120.0001         0.430105   
     23. A(C   6,C   4,H   7)          120.0001         0.353065   
     24. A(C   0,C   4,H   7)          119.9998         0.353068   
     25. A(C   4,C   6,H  10)          120.0000         0.353064   
     26. A(C   4,C   6,C   8)          120.0000         0.430104   
     27. A(C   8,C   6,H  10)          119.9999         0.353066   
     28. A(C   2,C   8,C   6)          120.0000         0.430104   
     29. A(C   6,C   8,H  11)          120.0001         0.353068   
     30. A(C   2,C   8,H  11)          119.9998         0.353066   
     31. D(H   3,C   1,C   0,C   4)    180.0000         0.025200   
     32. D(H   3,C   1,C   0,H   5)      0.0000         0.025200   
     33. D(C   2,C   1,C   0,H   5)    180.0000         0.025200   
     34. D(C   2,C   1,C   0,C   4)      0.0000         0.025200   
     35. D(H   9,C   2,C   1,C   0)    180.0000         0.025201   
     36. D(C   8,C   2,C   1,C   0)      0.0000         0.025201   
     37. D(C   8,C   2,C   1,H   3)    180.0000         0.025201   
     38. D(H   9,C   2,C   1,H   3)      0.0000         0.025201   
     39. D(H   7,C   4,C   0,H   5)      0.0000         0.025203   
     40. D(H   7,C   4,C   0,C   1)    180.0000         0.025203   
     41. D(C   6,C   4,C   0,H   5)    180.0000         0.025203   
     42. D(C   6,C   4,C   0,C   1)      0.0000         0.025203   
     43. D(H  10,C   6,C   4,C   0)    180.0000         0.025201   
     44. D(C   8,C   6,C   4,H   7)    180.0000         0.025201   
     45. D(C   8,C   6,C   4,C   0)      0.0000         0.025201   
     46. D(H  10,C   6,C   4,H   7)      0.0000         0.025201   
     47. D(H  11,C   8,C   6,H  10)      0.0000         0.025202   
     48. D(C   2,C   8,C   6,H  10)    180.0000         0.025202   
     49. D(C   2,C   8,C   6,C   4)      0.0000         0.025202   
     50. D(H  11,C   8,C   2,H   9)      0.0000         0.025201   
     51. D(H  11,C   8,C   2,C   1)    180.0000         0.025201   
     52. D(H  11,C   8,C   6,C   4)    180.0000         0.025202   
     53. D(C   6,C   8,C   2,H   9)    180.0000         0.025201   
     54. D(C   6,C   8,C   2,C   1)      0.0000         0.025201   
    -----------------------------------------------------------------

Number of atoms                         .... 12
Number of degrees of freedom            .... 54

         *************************************************************
         *                GEOMETRY OPTIMIZATION CYCLE   1            *
         *************************************************************
---------------------------------
CARTESIAN COORDINATES (ANGSTROEM)
---------------------------------
  C     -6.435080    0.469880    0.000000
  C     -5.038180    0.547370   -0.000000
  C     -4.272630   -0.623640   -0.000000
  H     -4.549750    1.513230   -0.000000
  C     -7.066420   -0.778600    0.000000
  H     -7.027320    1.375810    0.000000
  C     -6.300870   -1.949610    0.000000
  H     -8.147100   -0.838540    0.000000
  C     -4.903980   -1.872130    0.000000
  H     -3.191950   -0.563700   -0.000000
  H     -6.789300   -2.915480    0.000000
  H     -4.311730   -2.778050    0.000000

----------------------------
CARTESIAN COORDINATES (A.U.)
----------------------------
  NO LB      ZA    FRAG     MASS         X           Y           Z
   0 C     6.0000    0    12.011  -12.160539    0.887945    0.000000
   1 C     6.0000    0    12.011   -9.520780    1.034379   -0.000000
   2 C     6.0000    0    12.011   -8.074101   -1.178509   -0.000000
   3 H     1.0000    0     1.008   -8.597781    2.859590   -0.000000
   4 C     6.0000    0    12.011  -13.353599   -1.471341    0.000000
   5 H     1.0000    0     1.008  -13.279710    2.599904    0.000000
   6 C     6.0000    0    12.011  -11.906919   -3.684229    0.000000
   7 H     1.0000    0     1.008  -15.395788   -1.584611    0.000000
   8 C     6.0000    0    12.011   -9.267179   -3.537813    0.000000
   9 H     1.0000    0     1.008   -6.031911   -1.065239   -0.000000
  10 H     1.0000    0     1.008  -12.829918   -5.509459    0.000000
  11 H     1.0000    0     1.008   -8.147989   -5.249754    0.000000

--------------------------------
INTERNAL COORDINATES (ANGSTROEM)
--------------------------------
 C      0   0   0     0.000000000000     0.00000000     0.00000000
 C      1   0   0     1.399047643971     0.00000000     0.00000000
 C      2   1   0     1.399046540541   119.99962302     0.00000000
 H      2   1   3     1.082335162738   120.00057361   180.00000000
 C      1   2   3     1.399032703692   120.00023178     0.00000000
 H      1   2   3     1.082338848282   119.99902710   180.00000000
 C      5   1   2     1.399046540541   120.00014520     0.00000000
 H      5   1   2     1.082341011881   119.99978881   180.00000000
 C      7   5   1     1.399037105476   120.00000924     0.00000000
 H      3   2   1     1.082341011881   120.00006599   180.00000000
 H      7   5   1     1.082344086601   120.00004226   180.00000000
 H      9   7   5     1.082335950110   120.00014608   180.00000121

---------------------------
INTERNAL COORDINATES (A.U.)
---------------------------
 C      0   0   0     0.000000000000     0.00000000     0.00000000
 C      1   0   0     2.643816895412     0.00000000     0.00000000
 C      2   1   0     2.643814810233   119.99962302     0.00000000
 H      2   1   3     2.045317042689   120.00057361   180.00000000
 C      1   2   3     2.643788662377   120.00023178     0.00000000
 H      1   2   3     2.045324007356   119.99902710   180.00000000
 C      5   1   2     2.643814810233   120.00014520     0.00000000
 H      5   1   2     2.045328095967   119.99978881   180.00000000
 C      7   5   1     2.643796980544   120.00000924     0.00000000
 H      3   2   1     2.045328095967   120.00006599   180.00000000
 H      7   5   1     2.045333906345   120.00004226   180.00000000
 H      9   7   5     2.045318530605   120.00014608   180.00000121

---------------------
BASIS SET INFORMATION
---------------------
There are 2 groups of distinct atoms

 Group   1 Type C   : 12s6p1d contracted to 5s4p1d pattern {63111/3111/1}
 Group   2 Type H   : 5s1p contracted to 3s1p pattern {311/1}

Atom   0C    basis set group =>   1
Atom   1C    basis set group =>   1
Atom   2C    basis set group =>   1
Atom   3H    basis set group =>   2
Atom   4C    basis set group =>   1
Atom   5H    basis set group =>   2
Atom   6C    basis set group =>   1
Atom   7H    basis set group =>   2
Atom   8C    basis set group =>   1
Atom   9H    basis set group =>   2
Atom  10H    basis set group =>   2
Atom  11H    basis set group =>   2

-------------------------
BASIS SET IN INPUT FORMAT
-------------------------

 # Basis set for element : H 
 NewGTO H 
 S 3 
   1      33.8650000000      0.0254938145
   2       5.0947900000      0.1903731086
   3       1.1587900000      0.8521614860
 S 1 
   1       0.3258400000      1.0000000000
 S 1 
   1       0.1027410000      1.0000000000
 P 1 
   1       0.7500000000      1.0000000000
  end;

 # Basis set for element : C 
 NewGTO C 
 S 6 
   1    4563.2400000000      0.0019666502
   2     682.0240000000      0.0152306019
   3     154.9730000000      0.0761269097
   4      44.4553000000      0.2608010331
   5      13.0290000000      0.6164620782
   6       1.8277300000      0.2210060280
 S 3 
   1      20.9642000000      0.1146600807
   2       4.8033100000      0.9199996477
   3       1.4593300000     -0.0030306821
 P 3 
   1      20.9642000000      0.0402486927
   2       4.8033100000      0.2375939567
   3       1.4593300000      0.8158538515
 S 1 
   1       0.4834560000      1.0000000000
 P 1 
   1       0.4834560000      1.0000000000
 S 1 
   1       0.1455850000      1.0000000000
 P 1 
   1       0.1455850000      1.0000000000
 S 1 
   1       0.0438000000      1.0000000000
 P 1 
   1       0.0438000000      1.0000000000
 D 1 
   1       0.6260000000      1.0000000000
  end;

------------------------------------------------------------------------------
                           ORCA GTO INTEGRAL CALCULATION
------------------------------------------------------------------------------

                         BASIS SET STATISTICS AND STARTUP INFO

 # of primitive gaussian shells          ...  150
 # of primitive gaussian functions       ...  258
 # of contracted shells                  ...   84
 # of contracted basis functions         ...  168
 Highest angular momentum                ...    2
 Maximum contraction depth               ...    6
 Integral package used                   ... LIBINT
 Integral threshhold            Thresh   ...  2.500e-11
 Primitive cut-off              TCut     ...  2.500e-12


------------------------------ INTEGRAL EVALUATION ----------------------------


 * One electron integrals 
 Pre-screening matrix                    ... done
 Shell pair data                         ... done (   0.002 sec)

-------------------------------------------------------------------------------
                                 ORCA SCF
-------------------------------------------------------------------------------

------------
SCF SETTINGS
------------
Hamiltonian:
 Density Functional     Method          .... DFT(GTOs)
 Exchange Functional    Exchange        .... B88
   X-Alpha parameter    XAlpha          ....  0.666667
   Becke's b parameter  XBeta           ....  0.004200
 Correlation Functional Correlation     .... LYP
 LDA part of GGA corr.  LDAOpt          .... VWN-5
 Gradients option       PostSCFGGA      .... off
 Hybrid DFT is turned on
   Fraction HF Exchange ScalHFX         ....  0.200000
   Scaling of DF-GGA-X  ScalDFX         ....  0.720000
   Scaling of DF-GGA-C  ScalDFC         ....  0.810000
   Scaling of DF-LDA-C  ScalLDAC        ....  1.000000
   Perturbative correction              ....  0.000000
   Density functional embedding theory  .... OFF
   NL short-range parameter             ....  4.800000


General Settings:
 Integral files         IntName         .... ben
 Hartree-Fock type      HFTyp           .... RHF
 Total Charge           Charge          ....    0
 Multiplicity           Mult            ....    1
 Number of Electrons    NEL             ....   42
 Basis Dimension        Dim             ....  168
 Nuclear Repulsion      ENuc            ....    203.0193512800 Eh

Convergence Acceleration:
 DIIS                   CNVDIIS         .... on
   Start iteration      DIISMaxIt       ....    12
   Startup error        DIISStart       ....  0.200000
   # of expansion vecs  DIISMaxEq       ....     5
   Bias factor          DIISBfac        ....   1.050
   Max. coefficient     DIISMaxC        ....  10.000
 Newton-Raphson         CNVNR           .... off
 SOSCF                  CNVSOSCF        .... on
   Start iteration      SOSCFMaxIt      ....   150
   Startup grad/error   SOSCFStart      ....  0.003300
 Level Shifting         CNVShift        .... on
   Level shift para.    LevelShift      ....    0.2500
   Turn off err/grad.   ShiftErr        ....    0.0010
 Zerner damping         CNVZerner       .... off
 Static damping         CNVDamp         .... on
   Fraction old density DampFac         ....    0.7000
   Max. Damping (<1)    DampMax         ....    0.9800
   Min. Damping (>=0)   DampMin         ....    0.0000
   Turn off err/grad.   DampErr         ....    0.1000
 Fernandez-Rico         CNVRico         .... off

SCF Procedure:
 Maximum # iterations   MaxIter         ....   125
 SCF integral mode      SCFMode         .... Direct
   Integral package                     .... LIBINT
 Reset frequency        DirectResetFreq ....    20
 Integral Threshold     Thresh          ....  2.500e-11 Eh
 Primitive CutOff       TCut            ....  2.500e-12 Eh

Convergence Tolerance:
 Convergence Check Mode ConvCheckMode   .... Total+1el-Energy
 Convergence forced     ConvForced      .... 0
 Energy Change          TolE            ....  1.000e-08 Eh
 1-El. energy change                    ....  1.000e-05 Eh
 Orbital Gradient       TolG            ....  1.000e-05
 Orbital Rotation angle TolX            ....  1.000e-05
 DIIS Error             TolErr          ....  5.000e-07


Diagonalization of the overlap matrix:
Smallest eigenvalue                        ... 4.267e-06
Time for diagonalization                   ...    0.160 sec
Threshold for overlap eigenvalues          ... 1.000e-08
Number of eigenvalues below threshold      ... 0
Time for construction of square roots      ...    0.012 sec
Total time needed                          ...    0.171 sec

-------------------
DFT GRID GENERATION
-------------------

General Integration Accuracy     IntAcc      ...  4.340
Radial Grid Type                 RadialGrid  ... Gauss-Chebyshev
Angular Grid (max. acc.)         AngularGrid ... Lebedev-110
Angular grid pruning method      GridPruning ... 3 (G Style)
Weight generation scheme         WeightScheme... Becke
Basis function cutoff            BFCut       ...    1.0000e-11
Integration weight cutoff        WCut        ...    1.0000e-14
Grids for H and He will be reduced by one unit

# of grid points (after initial pruning)     ...  14700 (   0.0 sec)
# of grid points (after weights+screening)   ...  13762 (   0.1 sec)
nearest neighbour list constructed           ...    0.0 sec
Grid point re-assignment to atoms done       ...    0.0 sec
Grid point division into batches done        ...    0.0 sec
Reduced shell lists constructed in    0.3 sec

Total number of grid points                  ...    13762
Total number of batches                      ...      220
Average number of points per batch           ...       62
Average number of grid points per atom       ...     1147
Average number of shells per batch           ...    66.84 (79.57%)
Average number of basis functions per batch  ...   136.77 (81.41%)
Average number of large shells per batch     ...    55.16 (82.52%)
Average number of large basis fcns per batch ...   114.04 (83.38%)
Maximum spatial batch extension              ...  17.12, 20.35, 27.00 au
Average spatial batch extension              ...   3.70,  4.02,  5.53 au

Time for grid setup =    0.369 sec

------------------------------
INITIAL GUESS: MODEL POTENTIAL
------------------------------
Loading Hartree-Fock densities                     ... done
Calculating cut-offs                               ... done
Setting up the integral package                    ... done
Initializing the effective Hamiltonian             ... done
Starting the Coulomb interaction                   ... done (   0.2 sec)
Reading the grid                                   ... done
Mapping shells                                     ... done
Starting the XC term evaluation                    ... done (   0.5 sec)
  promolecular density results
     # of electrons  =     42.003603288
     EX              =    -32.602534641
     EC              =     -1.376744401
     EX+EC           =    -33.979279042
Transforming the Hamiltonian                       ... done (   0.0 sec)
Diagonalizing the Hamiltonian                      ... done (   0.0 sec)
Back transforming the eigenvectors                 ... done (   0.0 sec)
Now organizing SCF variables                       ... done
                      ------------------
                      INITIAL GUESS DONE (   1.4 sec)
                      ------------------
--------------
SCF ITERATIONS
--------------
               ***  Starting incremental Fock matrix formation  ***

                         ----------------------------
                         !        ITERATION     0   !
                         ----------------------------
   Total Energy        :    -232.002079520954 Eh
   Energy Change       :    -232.002079520954 Eh
   MAX-DP              :       0.043439622684
   RMS-DP              :       0.001453780223
   Actual Damping      :       0.7000
   Actual Level Shift  :       0.2500 Eh
   Int. Num. El.       :    42.00231802 (UP=   21.00115901 DN=   21.00115901)
   Exchange            :   -26.83409831
   Correlation         :    -1.65466805


                         ----------------------------
                         !        ITERATION     1   !
                         ----------------------------
   Total Energy        :    -232.071894093956 Eh
   Energy Change       :      -0.069814573002 Eh
   MAX-DP              :       0.027990062873
   RMS-DP              :       0.001097462356
   Actual Damping      :       0.7000
   Actual Level Shift  :       0.2500 Eh
   Int. Num. El.       :    42.00371214 (UP=   21.00185607 DN=   21.00185607)
   Exchange            :   -26.63569003
   Correlation         :    -1.64547074

                               ***Turning on DIIS***

                         ----------------------------
                         !        ITERATION     2   !
                         ----------------------------
   Total Energy        :    -232.102158724922 Eh
   Energy Change       :      -0.030264630966 Eh
   MAX-DP              :       0.044530295388
   RMS-DP              :       0.002081485622
   Actual Damping      :       0.0000
   Actual Level Shift  :       0.2500 Eh
   Int. Num. El.       :    42.00497037 (UP=   21.00248519 DN=   21.00248519)
   Exchange            :   -26.49568052
   Correlation         :    -1.63873451
   DIIS-Error          :       0.033924315770


                         ----------------------------
                         !        ITERATION     3   !
                         ----------------------------
   Total Energy        :    -232.144411109597 Eh
   Energy Change       :      -0.042252384675 Eh
   MAX-DP              :       0.017323118445
   RMS-DP              :       0.000733443107
   Actual Damping      :       0.0000
   Actual Level Shift  :       0.2500 Eh
   Int. Num. El.       :    42.00739326 (UP=   21.00369663 DN=   21.00369663)
   Exchange            :   -26.27000817
   Correlation         :    -1.62784925
   DIIS-Error          :       0.042198003674
   DIIS coefficients:
      0.54881   0.45119


                         ----------------------------
                         !        ITERATION     4   !
                         ----------------------------
   Total Energy        :    -232.156519534037 Eh
   Energy Change       :      -0.012108424441 Eh
   MAX-DP              :       0.004669931296
   RMS-DP              :       0.000292281677
   Actual Damping      :       0.0000
   Actual Level Shift  :       0.2500 Eh
   Int. Num. El.       :    42.00663687 (UP=   21.00331844 DN=   21.00331844)
   Exchange            :   -26.35898664
   Correlation         :    -1.63265885
   DIIS-Error          :       0.007675178085
   DIIS coefficients:
      0.16262  -0.01237   0.84976

                      *** Initiating the SOSCF procedure ***
                           *** Shutting down DIIS ***
                      *** Re-Reading the Fockian *** 
                      *** Removing any level shift *** 

                         ----------------------------
                         !        ITERATION     5   !
                         ----------------------------
   Total Energy        :    -232.156987983284 Eh
   Energy Change       :      -0.000468449247 Eh
   MAX-DP              :       0.002342126490
   RMS-DP              :       0.000131361769
   Orbital gradient    :       0.000723282129
   Orbital Rotation    :       0.000723282129
   Actual Damping      :       0.0000
   Int. Num. El.       :    42.00638749 (UP=   21.00319375 DN=   21.00319375)
   Exchange            :   -26.37727464
   Correlation         :    -1.63355997

               *** Restarting incremental Fock matrix formation ***

                         ----------------------------
                         !        ITERATION     6   !
                         ----------------------------
   Total Energy        :    -232.157017198209 Eh
   Energy Change       :      -0.000029214925 Eh
   MAX-DP              :       0.001614941546
   RMS-DP              :       0.000092233062
   Orbital gradient    :       0.000332803493
   Orbital Rotation    :       0.000960436229
   Actual Damping      :       0.0000
   Int. Num. El.       :    42.00630882 (UP=   21.00315441 DN=   21.00315441)
   Exchange            :   -26.38148283
   Correlation         :    -1.63377505


                         ----------------------------
                         !        ITERATION     7   !
                         ----------------------------
   Total Energy        :    -232.157019307641 Eh
   Energy Change       :      -0.000002109431 Eh
   MAX-DP              :       0.000279815161
   RMS-DP              :       0.000015223468
   Orbital gradient    :       0.000209636892
   Orbital Rotation    :       0.000151628424
   Actual Damping      :       0.0000
   Int. Num. El.       :    42.00625251 (UP=   21.00312625 DN=   21.00312625)
   Exchange            :   -26.38393442
   Correlation         :    -1.63391075


                         ----------------------------
                         !        ITERATION     8   !
                         ----------------------------
   Total Energy        :    -232.157020401523 Eh
   Energy Change       :      -0.000001093882 Eh
   MAX-DP              :       0.000235433592
   RMS-DP              :       0.000012491131
   Orbital gradient    :       0.000070030736
   Orbital Rotation    :       0.000071517372
   Actual Damping      :       0.0000
   Int. Num. El.       :    42.00625684 (UP=   21.00312842 DN=   21.00312842)
   Exchange            :   -26.38284635
   Correlation         :    -1.63385231


                         ----------------------------
                         !        ITERATION     9   !
                         ----------------------------
   Total Energy        :    -232.157020486001 Eh
   Energy Change       :      -0.000000084479 Eh
   MAX-DP              :       0.000023986028
   RMS-DP              :       0.000001449075
   Orbital gradient    :       0.000020712098
   Orbital Rotation    :       0.000012684465
   Actual Damping      :       0.0000
   Int. Num. El.       :    42.00626178 (UP=   21.00313089 DN=   21.00313089)
   Exchange            :   -26.38280300
   Correlation         :    -1.63385214


                         ----------------------------
                         !        ITERATION    10   !
                         ----------------------------
   Total Energy        :    -232.157020496898 Eh
   Energy Change       :      -0.000000010896 Eh
   MAX-DP              :       0.000011731657
   RMS-DP              :       0.000000611673
   Orbital gradient    :       0.000002551264
   Orbital Rotation    :       0.000003134746
   Actual Damping      :       0.0000
   Int. Num. El.       :    42.00626056 (UP=   21.00313028 DN=   21.00313028)
   Exchange            :   -26.38288060
   Correlation         :    -1.63385534

                 **** Energy Check signals convergence ****
              ***Rediagonalizing the Fockian in SOSCF/NRSCF***

               *****************************************************
               *                     SUCCESS                       *
               *           SCF CONVERGED AFTER  11 CYCLES          *
               *****************************************************

Setting up the final grid:

General Integration Accuracy     IntAcc      ...  4.670
Radial Grid Type                 RadialGrid  ... Gauss-Chebyshev
Angular Grid (max. acc.)         AngularGrid ... Lebedev-302
Angular grid pruning method      GridPruning ... 3 (G Style)
Weight generation scheme         WeightScheme... Becke
Basis function cutoff            BFCut       ...    1.0000e-11
Integration weight cutoff        WCut        ...    1.0000e-14
Grids for H and He will be reduced by one unit

# of grid points (after initial pruning)     ...  57636 (   0.0 sec)
# of grid points (after weights+screening)   ...  53408 (   0.1 sec)
nearest neighbour list constructed           ...    0.0 sec
Grid point re-assignment to atoms done       ...    0.0 sec
Grid point division into batches done        ...    0.2 sec
Reduced shell lists constructed in    0.7 sec

Total number of grid points                  ...    53408
Total number of batches                      ...      842
Average number of points per batch           ...       63
Average number of grid points per atom       ...     4451
Average number of shells per batch           ...    61.73 (73.48%)
Average number of basis functions per batch  ...   126.39 (75.23%)
Average number of large shells per batch     ...    50.19 (81.31%)
Average number of large basis fcns per batch ...   103.10 (81.58%)
Maximum spatial batch extension              ...  16.78, 16.05, 23.20 au
Average spatial batch extension              ...   2.58,  2.66,  3.04 au

Final grid set up in    0.9 sec
Final integration                            ... done (   1.6 sec)
Change in XC energy                          ...     0.000207656
Integrated number of electrons               ...    41.999905253
Previous integrated no of electrons          ...    42.006260450

----------------
TOTAL SCF ENERGY
----------------

Total Energy       :         -232.15681284 Eh           -6317.30804 eV

Components:
Nuclear Repulsion  :          203.01935128 Eh            5524.43741 eV
Electronic Energy  :         -435.17616412 Eh          -11841.74545 eV
One Electron Energy:         -713.26536725 Eh          -19408.93737 eV
Two Electron Energy:          278.08920313 Eh            7567.19193 eV

Virial components:
Potential Energy   :         -463.31589537 Eh          -12607.46646 eV
Kinetic Energy     :          231.15908253 Eh            6290.15842 eV
Virial Ratio       :            2.00431621


DFT components:
N(Alpha)           :       20.999952626261 electrons
N(Beta)            :       20.999952626261 electrons
N(Total)           :       41.999905252523 electrons
E(X)               :      -26.382575550593 Eh       
E(C)               :       -1.633941457870 Eh       
E(XC)              :      -28.016517008464 Eh       
DFET-embed. en.    :        0.000000000000 Eh       

---------------
SCF CONVERGENCE
---------------

  Last Energy change         ...   -5.7773e-10  Tolerance :   1.0000e-08
  Last MAX-Density change    ...    4.2844e-06  Tolerance :   1.0000e-07
  Last RMS-Density change    ...    1.8487e-07  Tolerance :   5.0000e-09
  Last Orbital Gradient      ...    9.4371e-07  Tolerance :   1.0000e-05
  Last Orbital Rotation      ...    2.0801e-06  Tolerance :   1.0000e-05

             **** THE GBW FILE WAS UPDATED (ben.gbw) ****
             **** DENSITY FILE WAS UPDATED (ben.scfp) ****
             **** ENERGY FILE WAS UPDATED (ben.en.tmp) ****
             **** THE GBW FILE WAS UPDATED (ben.gbw) ****
             **** DENSITY FILE WAS UPDATED (ben.scfp) ****
----------------
ORBITAL ENERGIES
----------------

  NO   OCC          E(Eh)            E(eV) 
   0   2.0000     -10.176889      -276.9272 
   1   2.0000     -10.176686      -276.9217 
   2   2.0000     -10.176616      -276.9198 
   3   2.0000     -10.176140      -276.9068 
   4   2.0000     -10.176076      -276.9051 
   5   2.0000     -10.175847      -276.8989 
   6   2.0000      -0.854723       -23.2582 
   7   2.0000      -0.747677       -20.3453 
   8   2.0000      -0.747619       -20.3437 
   9   2.0000      -0.605155       -16.4671 
  10   2.0000      -0.605078       -16.4650 
  11   2.0000      -0.526153       -14.3173 
  12   2.0000      -0.465127       -12.6567 
  13   2.0000      -0.448968       -12.2170 
  14   2.0000      -0.425040       -11.5659 
  15   2.0000      -0.424893       -11.5619 
  16   2.0000      -0.368386       -10.0243 
  17   2.0000      -0.348319        -9.4782 
  18   2.0000      -0.348279        -9.4771 
  19   2.0000      -0.256454        -6.9785 
  20   2.0000      -0.256445        -6.9782 
  21   0.0000      -0.016055        -0.4369 
  22   0.0000      -0.015740        -0.4283 
  23   0.0000       0.006984         0.1901 
  24   0.0000       0.024655         0.6709 
  25   0.0000       0.027058         0.7363 
  26   0.0000       0.046999         1.2789 
  27   0.0000       0.047596         1.2952 
  28   0.0000       0.063942         1.7400 
  29   0.0000       0.073857         2.0098 
  30   0.0000       0.080172         2.1816 
  31   0.0000       0.089874         2.4456 
  32   0.0000       0.092432         2.5152 
  33   0.0000       0.100835         2.7439 
  34   0.0000       0.124771         3.3952 
  35   0.0000       0.141800         3.8586 
  36   0.0000       0.141921         3.8619 
  37   0.0000       0.144450         3.9307 
  38   0.0000       0.144881         3.9424 
  39   0.0000       0.145598         3.9619 
  40   0.0000       0.146952         3.9988 
  41   0.0000       0.172785         4.7017 
  42   0.0000       0.196806         5.3554 
  43   0.0000       0.197342         5.3700 
  44   0.0000       0.203422         5.5354 
  45   0.0000       0.206051         5.6069 
  46   0.0000       0.207209         5.6385 
  47   0.0000       0.208857         5.6833 
  48   0.0000       0.210284         5.7221 
  49   0.0000       0.226635         6.1670 
  50   0.0000       0.236237         6.4283 
  51   0.0000       0.236524         6.4361 
  52   0.0000       0.267565         7.2808 
  53   0.0000       0.283194         7.7061 
  54   0.0000       0.322521         8.7762 
  55   0.0000       0.323898         8.8137 
  56   0.0000       0.324424         8.8280 
  57   0.0000       0.325258         8.8507 
  58   0.0000       0.408362        11.1121 
  59   0.0000       0.454396        12.3647 
  60   0.0000       0.505318        13.7504 
  61   0.0000       0.528796        14.3893 
  62   0.0000       0.529159        14.3992 
  63   0.0000       0.533969        14.5300 
  64   0.0000       0.548249        14.9186 
  65   0.0000       0.551265        15.0007 
  66   0.0000       0.552331        15.0297 
  67   0.0000       0.577205        15.7066 
  68   0.0000       0.578189        15.7333 
  69   0.0000       0.608947        16.5703 
  70   0.0000       0.618313        16.8252 
  71   0.0000       0.620466        16.8837 
  72   0.0000       0.671535        18.2734 
  73   0.0000       0.693491        18.8708 
  74   0.0000       0.694837        18.9075 
  75   0.0000       0.721284        19.6271 
  76   0.0000       0.722989        19.6735 
  77   0.0000       0.729460        19.8496 
  78   0.0000       0.781747        21.2724 
  79   0.0000       0.823139        22.3988 
  80   0.0000       0.823965        22.4212 
  81   0.0000       0.824846        22.4452 
  82   0.0000       0.825144        22.4533 
  83   0.0000       0.854897        23.2629 
  84   0.0000       0.858418        23.3587 
  85   0.0000       0.859403        23.3856 
  86   0.0000       0.871249        23.7079 
  87   0.0000       0.941566        25.6213 
  88   0.0000       1.012501        27.5516 
  89   0.0000       1.016014        27.6471 
  90   0.0000       1.018300        27.7094 
  91   0.0000       1.079392        29.3718 
  92   0.0000       1.079452        29.3734 
  93   0.0000       1.139386        31.0043 
  94   0.0000       1.139469        31.0065 
  95   0.0000       1.284239        34.9459 
  96   0.0000       1.300047        35.3761 
  97   0.0000       1.458204        39.6797 
  98   0.0000       1.494819        40.6761 
  99   0.0000       1.495120        40.6843 
 100   0.0000       1.504202        40.9314 
 101   0.0000       1.564605        42.5751 
 102   0.0000       1.569959        42.7208 
 103   0.0000       1.570176        42.7267 
 104   0.0000       1.639177        44.6043 
 105   0.0000       1.639938        44.6250 
 106   0.0000       1.661311        45.2066 
 107   0.0000       1.662108        45.2283 
 108   0.0000       1.719680        46.7949 
 109   0.0000       1.776976        48.3540 
 110   0.0000       1.777128        48.3581 
 111   0.0000       1.801445        49.0198 
 112   0.0000       1.801577        49.0234 
 113   0.0000       1.850015        50.3415 
 114   0.0000       1.924683        52.3733 
 115   0.0000       1.925300        52.3901 
 116   0.0000       1.941586        52.8332 
 117   0.0000       1.943348        52.8812 
 118   0.0000       1.960534        53.3488 
 119   0.0000       1.972402        53.6718 
 120   0.0000       2.015386        54.8414 
 121   0.0000       2.016001        54.8582 
 122   0.0000       2.081875        56.6507 
 123   0.0000       2.082200        56.6596 
 124   0.0000       2.322164        63.1893 
 125   0.0000       2.338080        63.6224 
 126   0.0000       2.363727        64.3203 
 127   0.0000       2.391962        65.0886 
 128   0.0000       2.392093        65.0922 
 129   0.0000       2.399174        65.2848 
 130   0.0000       2.399857        65.3034 
 131   0.0000       2.618632        71.2566 
 132   0.0000       2.618774        71.2605 
 133   0.0000       2.640039        71.8391 
 134   0.0000       2.650744        72.1304 
 135   0.0000       2.666236        72.5520 
 136   0.0000       2.712322        73.8060 
 137   0.0000       2.712630        73.8144 
 138   0.0000       2.745792        74.7168 
 139   0.0000       2.746140        74.7263 
 140   0.0000       2.762759        75.1785 
 141   0.0000       2.792086        75.9765 
 142   0.0000       2.792363        75.9841 
 143   0.0000       2.887060        78.5609 
 144   0.0000       2.887594        78.5754 
 145   0.0000       2.907836        79.1262 
 146   0.0000       2.923029        79.5397 
 147   0.0000       2.923685        79.5575 
 148   0.0000       3.072625        83.6104 
 149   0.0000       3.096542        84.2612 
 150   0.0000       3.333255        90.7025 
 151   0.0000       3.333689        90.7143 
 152   0.0000       3.476860        94.6102 
 153   0.0000       3.477482        94.6271 
 154   0.0000       3.493992        95.0763 
 155   0.0000       3.668818        99.8336 
 156   0.0000       3.985961       108.4635 
 157   0.0000       3.986350       108.4741 
 158   0.0000       4.079436       111.0071 
 159   0.0000       4.150248       112.9340 
 160   0.0000       4.150885       112.9513 
 161   0.0000       4.836863       131.6177 
 162   0.0000      23.589335       641.8984 
 163   0.0000      23.955795       651.8703 
 164   0.0000      23.955927       651.8739 
 165   0.0000      24.079480       655.2360 
 166   0.0000      24.079621       655.2398 
 167   0.0000      24.186988       658.1614 
------------------
MOLECULAR ORBITALS
------------------
                      0         1         2         3         4         5   
                 -10.17689 -10.17669 -10.17662 -10.17614 -10.17608 -10.17585
                   2.00000   2.00000   2.00000   2.00000   2.00000   2.00000
                  --------  --------  --------  --------  --------  --------
  0C   1s        -0.217217 -0.133279 -0.287581  0.156274  0.294575 -0.240848
  0C   2s        -0.178960 -0.109693 -0.236672  0.128570  0.242325 -0.198056
  0C   1pz       -0.000000  0.000000 -0.000000  0.000000 -0.000000  0.000000
  0C   1px       -0.000144  0.000580 -0.000341  0.000367 -0.000362  0.000185
  0C   1py        0.000277  0.000435 -0.000146  0.000379  0.000092 -0.000213
  0C   3s        -0.006907 -0.004683 -0.010147  0.005347  0.010138 -0.008935
  0C   2pz        0.000000  0.000000  0.000000  0.000000  0.000000 -0.000000
  0C   2px        0.000873 -0.002608  0.001393 -0.001257  0.001243 -0.000525
  0C   2py       -0.001525 -0.001799  0.000802 -0.001265 -0.000341  0.000505
  0C   4s         0.003246  0.001087  0.004529 -0.003399 -0.006527  0.024103
  0C   3pz       -0.000000 -0.000000  0.000000 -0.000000 -0.000000  0.000000
  0C   3px       -0.000240  0.000713  0.000122 -0.000533 -0.002293  0.008058
  0C   3py        0.000425  0.000735 -0.001112  0.001836  0.003002 -0.012230
  0C   5s         0.000876 -0.004297 -0.006481  0.006037  0.012544  0.020489
  0C   4pz        0.000000  0.000000 -0.000000  0.000000  0.000000 -0.000000
  0C   4px       -0.000546 -0.002054 -0.000561 -0.000321  0.001913  0.002397
  0C   4py        0.000711  0.000279  0.002312 -0.001758 -0.001811 -0.003808
  0C   1dz2       0.000254  0.000248  0.000611 -0.000665 -0.001333  0.001218
  0C   1dxz      -0.000000  0.000000 -0.000000  0.000000  0.000000 -0.000000
  0C   1dyz      -0.000000  0.000000 -0.000000  0.000000 -0.000000 -0.000000
  0C   1dx2y2     0.000320 -0.001481  0.000867 -0.000785  0.000572 -0.000200
  0C   1dxy       0.000867  0.000787 -0.000135  0.000500  0.000187 -0.000243
  1C   1s        -0.220630  0.164991 -0.274518  0.196026 -0.266690  0.236735
  1C   2s        -0.181767  0.135791 -0.225918  0.161271 -0.219380  0.194671
  1C   1pz       -0.000000  0.000000 -0.000000  0.000000 -0.000000  0.000000
  1C   1px        0.000108  0.000582  0.000419 -0.000352 -0.000406  0.000166
  1C   1py        0.000288 -0.000353 -0.000153  0.000353 -0.000088  0.000233
  1C   3s        -0.007025  0.005800 -0.009696  0.006715 -0.009191  0.008790
  1C   2pz       -0.000000 -0.000000 -0.000000  0.000000  0.000000  0.000000
  1C   2px       -0.000686 -0.002611 -0.001764  0.001204  0.001391 -0.000489
  1C   2py       -0.001602  0.001423  0.000815 -0.001177  0.000337 -0.000551
  1C   4s         0.003325 -0.001609  0.004752 -0.004244  0.005940 -0.024036
  1C   3pz        0.000000  0.000000  0.000000  0.000000 -0.000000 -0.000000
  1C   3px        0.000165  0.000791 -0.000014  0.000585 -0.001885  0.006657
  1C   3py        0.000406 -0.000514 -0.001387  0.002302 -0.002945  0.013031
  1C   5s         0.000710  0.004963 -0.005617  0.007794 -0.011571 -0.020577
  1C   4pz       -0.000000 -0.000000  0.000000 -0.000000  0.000000  0.000000
  1C   4px        0.000489 -0.002031  0.000046  0.000271  0.001751  0.001963
  1C   4py        0.000788 -0.000760  0.002220 -0.001989  0.001739  0.004084
  1C   1dz2       0.000271 -0.000315  0.000598 -0.000846  0.001222 -0.001210
  1C   1dxz       0.000000 -0.000000  0.000000 -0.000000  0.000000 -0.000000
  1C   1dyz       0.000000 -0.000000  0.000000 -0.000000 -0.000000  0.000000
  1C   1dx2y2     0.000496  0.001173  0.000947 -0.000563 -0.000693  0.000261
  1C   1dxy      -0.000772  0.001053  0.000445 -0.000663 -0.000026 -0.000188
  2C   1s        -0.249272  0.337108  0.020119 -0.309083 -0.020588 -0.211454
  2C   2s        -0.205329  0.277423  0.016555 -0.254241 -0.016933 -0.173866
  2C   1pz        0.000000 -0.000000  0.000000  0.000000 -0.000000  0.000000
  2C   1px        0.000278 -0.000053  0.000044 -0.000331  0.000006 -0.000287
  2C   1py        0.000013  0.000041 -0.000809  0.000024 -0.000573 -0.000021
  2C   3s        -0.008009  0.011922  0.000715 -0.010678 -0.000716 -0.007895
  2C   2pz        0.000000  0.000000 -0.000000  0.000000  0.000000 -0.000000
  2C   2px       -0.001641  0.000063 -0.000200  0.001204 -0.000010  0.000717
  2C   2py       -0.000081 -0.000192  0.003542 -0.000075  0.001941  0.000065
  2C   4s         0.003959 -0.006679 -0.000552  0.006960  0.000488  0.023615
  2C   3pz       -0.000000 -0.000000  0.000000 -0.000000 -0.000000  0.000000
  2C   3px        0.000072  0.002095  0.000292 -0.004190 -0.000276 -0.014510
  2C   3py        0.000001  0.000178 -0.001105 -0.000186 -0.000635 -0.000813
  2C   5s        -0.000506  0.005831  0.000144 -0.013913 -0.000981  0.021113
  2C   4pz        0.000000  0.000000 -0.000000  0.000000  0.000000 -0.000000
  2C   4px        0.001171 -0.002186 -0.000179  0.002766  0.000112 -0.004715
  2C   4py        0.000071 -0.000218  0.001749  0.000051  0.001375 -0.000247
  2C   1dz2       0.000401 -0.000764 -0.000051  0.001452  0.000102  0.001156
  2C   1dxz      -0.000000 -0.000000  0.000000 -0.000000 -0.000000 -0.000000
  2C   1dyz      -0.000000 -0.000000 -0.000000  0.000000 -0.000000 -0.000000
  2C   1dx2y2    -0.000869  0.000216  0.000217  0.000500  0.000156  0.000325
  2C   1dxy      -0.000102  0.000128 -0.001861  0.000130 -0.001011  0.000022
  3H   1s         0.000108  0.000065 -0.000134  0.000167 -0.000258  0.000358
  3H   2s         0.002230 -0.001177  0.002117 -0.001580  0.002104 -0.003359
  3H   3s        -0.002709  0.000889 -0.001118  0.000211 -0.000028 -0.002473
  3H   1pz       -0.000000 -0.000000 -0.000000  0.000000  0.000000 -0.000000
  3H   1px       -0.000618  0.000235 -0.000580  0.000364 -0.000377  0.000382
  3H   1py       -0.001230  0.000674 -0.001009  0.000609 -0.000820  0.000768
  4C   1s        -0.250114 -0.336417 -0.020552 -0.309489 -0.020251  0.210957
  4C   2s        -0.206022 -0.276853 -0.016912 -0.254574 -0.016656  0.173458
  4C   1pz        0.000000  0.000000 -0.000000 -0.000000  0.000000  0.000000
  4C   1px       -0.000278 -0.000052  0.000044  0.000332 -0.000006 -0.000286
  4C   1py       -0.000012  0.000041 -0.000810 -0.000023  0.000572 -0.000022
  4C   3s        -0.008039 -0.011900 -0.000730 -0.010693 -0.000703  0.007878
  4C   2pz       -0.000000 -0.000000  0.000000  0.000000 -0.000000 -0.000000
  4C   2px        0.001642  0.000058 -0.000199 -0.001205  0.000011  0.000714
  4C   2py        0.000077 -0.000193  0.003545  0.000073 -0.001936  0.000068
  4C   4s         0.003969  0.006668  0.000561  0.007006  0.000459 -0.023603
  4C   3pz        0.000000  0.000000 -0.000000  0.000000  0.000000  0.000000
  4C   3px       -0.000071  0.002095  0.000294  0.004218  0.000259 -0.014502
  4C   3py        0.000001  0.000178 -0.001106  0.000188  0.000633 -0.000814
  4C   5s        -0.000527 -0.005830 -0.000152 -0.013874 -0.001004 -0.021140
  4C   4pz       -0.000000 -0.000000  0.000000 -0.000000 -0.000000  0.000000
  4C   4px       -0.001178 -0.002182 -0.000182 -0.002757 -0.000117 -0.004720
  4C   4py       -0.000074 -0.000218  0.001751 -0.000052 -0.001373 -0.000245
  4C   1dz2       0.000403  0.000763  0.000052  0.001455  0.000100 -0.001153
  4C   1dxz      -0.000000 -0.000000 -0.000000  0.000000 -0.000000 -0.000000
  4C   1dyz       0.000000  0.000000 -0.000000  0.000000  0.000000 -0.000000
  4C   1dx2y2    -0.000870 -0.000213 -0.000218  0.000501  0.000155 -0.000323
  4C   1dxy      -0.000105 -0.000128  0.001863  0.000129 -0.001008 -0.000021
  5H   1s         0.000112 -0.000051 -0.000135  0.000129  0.000278 -0.000359
  5H   2s         0.002203  0.000933  0.002183 -0.001269 -0.002336  0.003391
  5H   3s        -0.002712 -0.000751 -0.001249  0.000198  0.000094  0.002454
  5H   1pz        0.000000  0.000000  0.000000  0.000000 -0.000000  0.000000
  5H   1px        0.000745  0.000229  0.000711 -0.000358 -0.000531  0.000475
  5H   1py       -0.001145 -0.000534 -0.000994  0.000449  0.000861 -0.000735
  6C   1s        -0.221447 -0.164473  0.274783  0.196302 -0.266540 -0.235964
  6C   2s        -0.182439 -0.135365  0.226136  0.161497 -0.219256 -0.194036
  6C   1pz        0.000000 -0.000000  0.000000  0.000000 -0.000000 -0.000000
  6C   1px       -0.000107  0.000583  0.000418  0.000352  0.000407  0.000167
  6C   1py       -0.000288 -0.000352 -0.000153 -0.000353  0.000088  0.000232
  6C   3s        -0.007053 -0.005784  0.009706  0.006726 -0.009186 -0.008764
  6C   2pz       -0.000000  0.000000  0.000000  0.000000  0.000000  0.000000
  6C   2px        0.000680 -0.002613 -0.001762 -0.001202 -0.001394 -0.000491
  6C   2py        0.001605  0.001418  0.000818  0.001178 -0.000337 -0.000549
  6C   4s         0.003343  0.001602 -0.004759 -0.004288  0.005961  0.024020
  6C   3pz        0.000000 -0.000000  0.000000  0.000000 -0.000000 -0.000000
  6C   3px       -0.000161  0.000792 -0.000017 -0.000598  0.001892  0.006654
  6C   3py       -0.000401 -0.000511 -0.001393 -0.002327  0.002958  0.013023
  6C   5s         0.000695 -0.004970  0.005639  0.007752 -0.011539  0.020607
  6C   4pz        0.000000  0.000000 -0.000000  0.000000  0.000000 -0.000000
  6C   4px       -0.000494 -0.002031  0.000047 -0.000275 -0.001748  0.001965
  6C   4py       -0.000791 -0.000758  0.002223  0.001980 -0.001731  0.004090
  6C   1dz2       0.000273  0.000315 -0.000600 -0.000848  0.001223  0.001207
  6C   1dxz       0.000000 -0.000000 -0.000000 -0.000000 -0.000000  0.000000
  6C   1dyz       0.000000 -0.000000 -0.000000 -0.000000 -0.000000 -0.000000
  6C   1dx2y2     0.000494 -0.001175 -0.000946 -0.000562 -0.000694 -0.000262
  6C   1dxy      -0.000775 -0.001051 -0.000446 -0.000663 -0.000026  0.000187
  7H   1s         0.000081 -0.000175 -0.000012 -0.000316 -0.000023  0.000345
  7H   2s         0.002461  0.002657  0.000174  0.002420  0.000154 -0.003163
  7H   3s        -0.002722 -0.001220 -0.000049  0.000104  0.000024 -0.002579
  7H   1pz       -0.000000 -0.000000  0.000000 -0.000000 -0.000000 -0.000000
  7H   1px        0.001476  0.001415  0.000079  0.001014  0.000065 -0.000748
  7H   1py        0.000081  0.000072  0.000118  0.000061 -0.000057 -0.000041
  8C   1s        -0.217053  0.133983  0.287072  0.155610  0.295192  0.240886
  8C   2s        -0.178825  0.110273  0.236254  0.128024  0.242833  0.198087
  8C   1pz       -0.000000 -0.000000 -0.000000  0.000000 -0.000000 -0.000000
  8C   1px        0.000146  0.000580 -0.000342 -0.000367  0.000362  0.000184
  8C   1py       -0.000276  0.000435 -0.000147 -0.000379 -0.000093 -0.000214
  8C   3s        -0.006901  0.004705  0.010130  0.005323  0.010160  0.008936
  8C   2pz        0.000000 -0.000000  0.000000  0.000000 -0.000000  0.000000
  8C   2px       -0.000882 -0.002606  0.001395  0.001257 -0.001241 -0.000521
  8C   2py        0.001519 -0.001803  0.000804  0.001263  0.000343  0.000506
  8C   4s         0.003240 -0.001098 -0.004519 -0.003350 -0.006561 -0.024103
  8C   3pz       -0.000000  0.000000 -0.000000  0.000000  0.000000 -0.000000
  8C   3px        0.000244  0.000713  0.000120  0.000517  0.002303  0.008057
  8C   3py       -0.000426  0.000735 -0.001110 -0.001811 -0.003018 -0.012230
  8C   5s         0.000876  0.004298  0.006469  0.006070  0.012528 -0.020492
  8C   4pz       -0.000000 -0.000000  0.000000 -0.000000 -0.000000  0.000000
  8C   4px        0.000541 -0.002056 -0.000558  0.000317 -0.001911  0.002399
  8C   4py       -0.000713  0.000281  0.002310  0.001763  0.001810 -0.003807
  8C   1dz2       0.000254 -0.000249 -0.000609 -0.000662 -0.001335 -0.001218
  8C   1dxz       0.000000 -0.000000  0.000000  0.000000 -0.000000  0.000000
  8C   1dyz      -0.000000 -0.000000  0.000000  0.000000 -0.000000 -0.000000
  8C   1dx2y2     0.000325  0.001481 -0.000867 -0.000785  0.000571  0.000197
  8C   1dxy       0.000864 -0.000789  0.000136  0.000499  0.000188  0.000243
  9H   1s         0.000081  0.000175  0.000012 -0.000315 -0.000023 -0.000346
  9H   2s         0.002455 -0.002663 -0.000170  0.002414  0.000158  0.003166
  9H   3s        -0.002718  0.001227  0.000046  0.000099  0.000027  0.002580
  9H   1pz        0.000000  0.000000  0.000000  0.000000  0.000000  0.000000
  9H   1px       -0.001472  0.001419  0.000077 -0.001013 -0.000066 -0.000749
  9H   1py       -0.000081  0.000072  0.000118 -0.000061  0.000057 -0.000041
 10H   1s         0.000108 -0.000066  0.000135  0.000168 -0.000258 -0.000357
 10H   2s         0.002236  0.001171 -0.002118 -0.001585  0.002104  0.003353
 10H   3s        -0.002712 -0.000881  0.001116  0.000205 -0.000024  0.002474
 10H   1pz       -0.000000  0.000000  0.000000  0.000000 -0.000000  0.000000
 10H   1px        0.000620  0.000233 -0.000580 -0.000364  0.000377  0.000380
 10H   1py        0.001234  0.000671 -0.001009 -0.000609  0.000820  0.000765
 11H   1s         0.000112  0.000050  0.000135  0.000129  0.000278  0.000359
 11H   2s         0.002202 -0.000940 -0.002179 -0.001261 -0.002342 -0.003391
 11H   3s        -0.002712  0.000758  0.001246  0.000202  0.000092 -0.002453
 11H   1pz        0.000000  0.000000 -0.000000 -0.000000  0.000000 -0.000000
 11H   1px       -0.000745  0.000231  0.000710  0.000357  0.000533  0.000475
 11H   1py        0.001145 -0.000538 -0.000992 -0.000447 -0.000863 -0.000736
                      6         7         8         9        10        11   
                  -0.85472  -0.74768  -0.74762  -0.60515  -0.60508  -0.52615
                   2.00000   2.00000   2.00000   2.00000   2.00000   2.00000
                  --------  --------  --------  --------  --------  --------
  0C   1s        -0.051772  0.018042  0.070025  0.001921 -0.056925 -0.005291
  0C   2s        -0.079730  0.027925  0.108394  0.002995 -0.089102 -0.008081
  0C   1pz        0.000000  0.000000  0.000000  0.000000 -0.000000  0.000000
  0C   1px        0.015613  0.040394 -0.016798  0.080213 -0.013762 -0.050308
  0C   1py       -0.023874  0.029753  0.002106  0.051126  0.026961  0.077102
  0C   3s         0.206137 -0.073604 -0.285695 -0.008001  0.240504  0.021059
  0C   2pz       -0.000000 -0.000000 -0.000000  0.000000 -0.000000 -0.000000
  0C   2px        0.023264  0.059149 -0.025290  0.112059 -0.018869 -0.069539
  0C   2py       -0.035631  0.044087  0.003833  0.071676  0.037125  0.106897
  0C   4s         0.096520 -0.039874 -0.151296 -0.004673  0.157717  0.033963
  0C   3pz        0.000000  0.000000  0.000000 -0.000000  0.000000  0.000000
  0C   3px        0.004813  0.018442 -0.007254  0.043706 -0.008023 -0.035560
  0C   3py       -0.007713  0.013821  0.000651  0.027424  0.014546  0.053843
  0C   5s         0.000264 -0.007250 -0.016068  0.001693 -0.135725 -0.001424
  0C   4pz       -0.000000  0.000000 -0.000000  0.000000 -0.000000 -0.000000
  0C   4px       -0.002448 -0.012457  0.008857  0.007454 -0.023976  0.001335
  0C   4py        0.005129 -0.012773 -0.010612  0.002895  0.033692  0.003737
  0C   1dz2      -0.009113  0.002192  0.008658  0.000138 -0.005250  0.001501
  0C   1dxz      -0.000000  0.000000 -0.000000 -0.000000  0.000000  0.000000
  0C   1dyz       0.000000 -0.000000  0.000000  0.000000 -0.000000 -0.000000
  0C   1dx2y2     0.000435  0.010683 -0.004972  0.008547  0.000920  0.002626
  0C   1dxy       0.001049 -0.006138 -0.003509 -0.003801  0.001423  0.005947
  1C   1s        -0.051783 -0.051622  0.050654 -0.050257  0.026783 -0.005304
  1C   2s        -0.079747 -0.079902  0.078410 -0.078671  0.041919 -0.008104
  1C   1pz        0.000000  0.000000 -0.000000  0.000000 -0.000000  0.000000
  1C   1px       -0.012859  0.028679  0.036515 -0.027974 -0.081382  0.041455
  1C   1py       -0.025429 -0.023533 -0.009594  0.043905  0.025222  0.082233
  1C   3s         0.206145  0.210586 -0.206718  0.212421 -0.113180  0.021320
  1C   2pz        0.000000  0.000000 -0.000000  0.000000  0.000000  0.000000
  1C   2px       -0.019203  0.041864  0.054052 -0.039342 -0.113701  0.057528
  1C   2py       -0.038083 -0.035314 -0.013599  0.060839  0.035612  0.114081
  1C   4s         0.097763  0.112437 -0.107162  0.138362 -0.073101  0.033528
  1C   3pz       -0.000000 -0.000000 -0.000000  0.000000 -0.000000 -0.000000
  1C   3px       -0.004455  0.013235  0.016510 -0.016016 -0.045118  0.029023
  1C   3py       -0.008602 -0.010860 -0.006423  0.025448  0.013931  0.058401
  1C   5s        -0.003166  0.003562  0.001165 -0.121922  0.061988 -0.002475
  1C   4pz        0.000000 -0.000000  0.000000 -0.000000  0.000000  0.000000
  1C   4px        0.002275 -0.008532 -0.018356  0.020136 -0.013152 -0.001227
  1C   4py        0.005100  0.016411 -0.003577  0.031493 -0.015387  0.000979
  1C   1dz2      -0.009161 -0.006387  0.006298 -0.004675  0.002435  0.001560
  1C   1dxz      -0.000000 -0.000000  0.000000 -0.000000  0.000000  0.000000
  1C   1dyz       0.000000  0.000000  0.000000 -0.000000  0.000000 -0.000000
  1C   1dx2y2     0.000658 -0.004844 -0.009496  0.004373  0.006175  0.003891
  1C   1dxy      -0.000876 -0.008314 -0.002357  0.001417  0.005528 -0.005235
  2C   1s        -0.051782 -0.069667 -0.019383  0.048315  0.030121 -0.005213
  2C   2s        -0.079749 -0.107837 -0.030005  0.075609  0.047144 -0.007952
  2C   1pz        0.000000 -0.000000 -0.000000  0.000000 -0.000000  0.000000
  2C   1px       -0.028432 -0.011573 -0.000228 -0.028458 -0.011492  0.092001
  2C   1py       -0.001579  0.013227 -0.049927  0.048869 -0.081557  0.005063
  2C   3s         0.206202  0.284152  0.079115 -0.203773 -0.127139  0.020589
  2C   2pz        0.000000 -0.000000 -0.000000  0.000000 -0.000000  0.000000
  2C   2px       -0.042739 -0.018377 -0.000772 -0.038916 -0.015692  0.127037
  2C   2py       -0.002336  0.019493 -0.073504  0.068273 -0.114030  0.007207
  2C   4s         0.096229  0.149579  0.040193 -0.135562 -0.084711  0.034188
  2C   3pz        0.000000 -0.000000  0.000000 -0.000000  0.000000  0.000000
  2C   3px       -0.007286 -0.001714  0.002055 -0.017261 -0.006182  0.068254
  2C   3py       -0.000680  0.005829 -0.023589  0.028867 -0.045647  0.003416
  2C   5s         0.001673  0.013252  0.003223  0.119555  0.073673  0.019815
  2C   4pz       -0.000000  0.000000 -0.000000  0.000000 -0.000000 -0.000000
  2C   4px        0.005967  0.015122  0.004242 -0.035667 -0.021760  0.000874
  2C   4py        0.000857 -0.001242  0.016971 -0.007008 -0.000230  0.000947
  2C   1dz2      -0.009139 -0.008687 -0.002400  0.004573  0.002838  0.001414
  2C   1dxz      -0.000000  0.000000  0.000000 -0.000000 -0.000000 -0.000000
  2C   1dyz       0.000000  0.000000 -0.000000  0.000000  0.000000  0.000000
  2C   1dx2y2    -0.001125 -0.004790 -0.002762  0.001914  0.000011 -0.006528
  2C   1dxy      -0.000092 -0.003919  0.012002 -0.004774  0.007992 -0.000740
  3H   1s         0.021543  0.035096 -0.034474  0.063283 -0.033726  0.069413
  3H   2s         0.025299  0.042117 -0.040904  0.080405 -0.043378  0.089933
  3H   3s        -0.005782 -0.001267  0.001555  0.010261 -0.005096  0.016898
  3H   1pz        0.000000  0.000000  0.000000  0.000000  0.000000  0.000000
  3H   1px       -0.002263 -0.001564  0.005131 -0.006998 -0.001339 -0.004681
  3H   1py       -0.004483 -0.007606  0.005584 -0.008620  0.007220 -0.009289
  4C   1s        -0.051784  0.069667  0.019385  0.048313  0.030122 -0.005214
  4C   2s        -0.079751  0.107836  0.030007  0.075607  0.047144 -0.007953
  4C   1pz        0.000000  0.000000  0.000000  0.000000  0.000000 -0.000000
  4C   1px        0.028432 -0.011572 -0.000228  0.028458  0.011491 -0.092003
  4C   1py        0.001579  0.013225 -0.049928 -0.048869  0.081559 -0.005063
  4C   3s         0.206209 -0.284148 -0.079121 -0.203767 -0.127140  0.020592
  4C   2pz        0.000000  0.000000  0.000000  0.000000 -0.000000  0.000000
  4C   2px        0.042740 -0.018377 -0.000772  0.038915  0.015691 -0.127041
  4C   2py        0.002337  0.019491 -0.073505 -0.068273  0.114033 -0.007207
  4C   4s         0.096232 -0.149577 -0.040195 -0.135559 -0.084713  0.034193
  4C   3pz       -0.000000  0.000000 -0.000000  0.000000 -0.000000 -0.000000
  4C   3px        0.007286 -0.001714  0.002055  0.017260  0.006182 -0.068255
  4C   3py        0.000680  0.005829 -0.023590 -0.028867  0.045648 -0.003416
  4C   5s         0.001684 -0.013253 -0.003223  0.119558  0.073678  0.019811
  4C   4pz        0.000000 -0.000000  0.000000 -0.000000  0.000000  0.000000
  4C   4px       -0.005965  0.015122  0.004242  0.035667  0.021761 -0.000876
  4C   4py       -0.000857 -0.001243  0.016972  0.007007  0.000229 -0.000947
  4C   1dz2      -0.009139  0.008686  0.002400  0.004572  0.002838  0.001414
  4C   1dxz       0.000000  0.000000  0.000000  0.000000  0.000000  0.000000
  4C   1dyz      -0.000000  0.000000 -0.000000 -0.000000 -0.000000 -0.000000
  4C   1dx2y2    -0.001126  0.004790  0.002763  0.001914  0.000011 -0.006528
  4C   1dxy      -0.000092  0.003919 -0.012002 -0.004774  0.007992 -0.000740
  5H   1s         0.021537 -0.012250 -0.047610 -0.002411  0.071627  0.069284
  5H   2s         0.025308 -0.014929 -0.057098 -0.003552  0.091652  0.090308
  5H   3s        -0.006257  0.000892  0.002339  0.000562  0.011117  0.015930
  5H   1pz       -0.000000  0.000000 -0.000000  0.000000  0.000000 -0.000000
  5H   1px        0.002744  0.000911 -0.006149  0.003988  0.006903  0.005680
  5H   1py       -0.004193  0.003757  0.008078  0.003170 -0.010213 -0.008696
  6C   1s        -0.051784  0.051619 -0.050655 -0.050256  0.026784 -0.005303
  6C   2s        -0.079749  0.079899 -0.078412 -0.078670  0.041919 -0.008103
  6C   1pz        0.000000 -0.000000  0.000000  0.000000  0.000000  0.000000
  6C   1px        0.012859  0.028679  0.036517  0.027973  0.081383 -0.041455
  6C   1py        0.025430 -0.023533 -0.009594 -0.043904 -0.025224 -0.082232
  6C   3s         0.206150 -0.210577  0.206723  0.212419 -0.113182  0.021317
  6C   2pz       -0.000000  0.000000  0.000000  0.000000 -0.000000 -0.000000
  6C   2px        0.019203  0.041865  0.054054  0.039341  0.113702 -0.057528
  6C   2py        0.038084 -0.035313 -0.013600 -0.060837 -0.035614 -0.114081
  6C   4s         0.097766 -0.112432  0.107163  0.138362 -0.073103  0.033526
  6C   3pz        0.000000 -0.000000  0.000000 -0.000000 -0.000000  0.000000
  6C   3px        0.004455  0.013236  0.016510  0.016015  0.045119 -0.029023
  6C   3py        0.008602 -0.010860 -0.006423 -0.025446 -0.013932 -0.058401
  6C   5s        -0.003175 -0.003563 -0.001166 -0.121926  0.061988 -0.002468
  6C   4pz       -0.000000  0.000000 -0.000000  0.000000 -0.000000 -0.000000
  6C   4px       -0.002275 -0.008532 -0.018357 -0.020135  0.013153  0.001228
  6C   4py       -0.005102  0.016411 -0.003577 -0.031494  0.015386 -0.000978
  6C   1dz2      -0.009161  0.006387 -0.006298 -0.004675  0.002435  0.001560
  6C   1dxz       0.000000 -0.000000  0.000000 -0.000000 -0.000000  0.000000
  6C   1dyz      -0.000000 -0.000000  0.000000 -0.000000  0.000000  0.000000
  6C   1dx2y2     0.000658  0.004844  0.009496  0.004372  0.006175  0.003891
  6C   1dxy      -0.000876  0.008314  0.002357  0.001417  0.005528 -0.005235
  7H   1s         0.021569 -0.047414 -0.013208 -0.060908 -0.037964  0.069263
  7H   2s         0.025022 -0.056304 -0.015541 -0.077333 -0.048355  0.089761
  7H   3s        -0.007279  0.003941  0.001608 -0.008445 -0.006005  0.012134
  7H   1pz        0.000000  0.000000  0.000000 -0.000000  0.000000  0.000000
  7H   1px        0.005036 -0.010138 -0.002647 -0.010274 -0.006743  0.010359
  7H   1py        0.000274  0.000232 -0.002952 -0.003213  0.003929  0.000565
  8C   1s        -0.051772 -0.018043 -0.070026  0.001922 -0.056924 -0.005292
  8C   2s        -0.079730 -0.027926 -0.108395  0.002997 -0.089102 -0.008082
  8C   1pz       -0.000000 -0.000000  0.000000  0.000000  0.000000  0.000000
  8C   1px       -0.015615  0.040393 -0.016801 -0.080214  0.013762  0.050308
  8C   1py        0.023873  0.029752  0.002104 -0.051124 -0.026962 -0.077103
  8C   3s         0.206135  0.073606  0.285696 -0.008006  0.240503  0.021062
  8C   2pz        0.000000 -0.000000  0.000000  0.000000 -0.000000  0.000000
  8C   2px       -0.023266  0.059148 -0.025292 -0.112060  0.018869  0.069538
  8C   2py        0.035629  0.044086  0.003831 -0.071674 -0.037125 -0.106898
  8C   4s         0.096519  0.039876  0.151297 -0.004678  0.157716  0.033966
  8C   3pz       -0.000000  0.000000 -0.000000  0.000000  0.000000 -0.000000
  8C   3px       -0.004814  0.018441 -0.007255 -0.043706  0.008023  0.035559
  8C   3py        0.007712  0.013821  0.000650 -0.027424 -0.014547 -0.053844
  8C   5s         0.000275  0.007252  0.016069  0.001695 -0.135723 -0.001430
  8C   4pz        0.000000 -0.000000  0.000000 -0.000000 -0.000000  0.000000
  8C   4px        0.002447 -0.012456  0.008857 -0.007455  0.023976 -0.001334
  8C   4py       -0.005126 -0.012772 -0.010612 -0.002894 -0.033691 -0.003737
  8C   1dz2      -0.009113 -0.002192 -0.008658  0.000138 -0.005250  0.001500
  8C   1dxz       0.000000 -0.000000 -0.000000 -0.000000 -0.000000  0.000000
  8C   1dyz      -0.000000  0.000000 -0.000000  0.000000 -0.000000 -0.000000
  8C   1dx2y2     0.000436 -0.010682  0.004972  0.008547  0.000920  0.002625
  8C   1dxy       0.001049  0.006138  0.003509 -0.003801  0.001423  0.005947
  9H   1s         0.021568  0.047414  0.013207 -0.060909 -0.037964  0.069261
  9H   2s         0.025021  0.056304  0.015539 -0.077334 -0.048355  0.089757
  9H   3s        -0.007278 -0.003941 -0.001608 -0.008444 -0.006005  0.012133
  9H   1pz       -0.000000 -0.000000 -0.000000  0.000000 -0.000000 -0.000000
  9H   1px       -0.005036 -0.010138 -0.002647  0.010275  0.006743 -0.010359
  9H   1py       -0.000274  0.000232 -0.002952  0.003213 -0.003929 -0.000564
 10H   1s         0.021543 -0.035094  0.034474  0.063281 -0.033725  0.069412
 10H   2s         0.025299 -0.042114  0.040904  0.080403 -0.043378  0.089932
 10H   3s        -0.005782  0.001267 -0.001555  0.010261 -0.005096  0.016898
 10H   1pz        0.000000 -0.000000 -0.000000  0.000000  0.000000 -0.000000
 10H   1px        0.002263 -0.001564  0.005131  0.006998  0.001339  0.004681
 10H   1py        0.004483 -0.007606  0.005585  0.008620 -0.007220  0.009289
 11H   1s         0.021536  0.012251  0.047610 -0.002414  0.071627  0.069285
 11H   2s         0.025308  0.014930  0.057098 -0.003556  0.091652  0.090309
 11H   3s        -0.006257 -0.000892 -0.002339  0.000562  0.011117  0.015931
 11H   1pz        0.000000 -0.000000  0.000000 -0.000000 -0.000000  0.000000
 11H   1px       -0.002744  0.000911 -0.006149 -0.003987 -0.006903 -0.005681
 11H   1py        0.004193  0.003757  0.008078 -0.003170  0.010213  0.008696
                     12        13        14        15        16        17   
                  -0.46513  -0.44897  -0.42504  -0.42489  -0.36839  -0.34832
                   2.00000   2.00000   2.00000   2.00000   2.00000   2.00000
                  --------  --------  --------  --------  --------  --------
  0C   1s         0.032817  0.000015  0.001323 -0.012545 -0.000000  0.001512
  0C   2s         0.051657  0.000027  0.002095 -0.019785 -0.000000  0.002465
  0C   1pz       -0.000000 -0.000000  0.000000  0.000000 -0.100504 -0.000000
  0C   1px        0.033211 -0.108390  0.024185  0.079829 -0.000000  0.048706
  0C   1py       -0.050847 -0.070723  0.033414 -0.114850  0.000000  0.106682
  0C   3s        -0.140801 -0.000083 -0.006330  0.059686 -0.000000 -0.009215
  0C   2pz       -0.000000 -0.000000  0.000000  0.000000 -0.156791 -0.000000
  0C   2px        0.046071 -0.152590  0.039747  0.110905 -0.000000  0.066765
  0C   2py       -0.070425 -0.099930  0.050158 -0.158641 -0.000000  0.147553
  0C   4s        -0.148096 -0.001657 -0.006460  0.051223  0.000000  0.006529
  0C   3pz       -0.000000  0.000000 -0.000000  0.000000 -0.109292 -0.000000
  0C   3px        0.022886 -0.076135 -0.009071  0.062731  0.000000  0.034396
  0C   3py       -0.033069 -0.048799  0.010010 -0.095542 -0.000000  0.098844
  0C   5s         0.114821  0.019696  0.035256 -0.073010  0.000000  0.021819
  0C   4pz        0.000000 -0.000000  0.000000 -0.000000 -0.004849  0.000000
  0C   4px        0.017078 -0.002373  0.029222  0.000190 -0.000000  0.018798
  0C   4py       -0.022210 -0.000957  0.017725 -0.009566 -0.000000  0.014347
  0C   1dz2       0.001541  0.000040 -0.000031  0.000605  0.000000 -0.000056
  0C   1dxz       0.000000  0.000000  0.000000  0.000000 -0.007128 -0.000000
  0C   1dyz       0.000000 -0.000000 -0.000000 -0.000000  0.010867  0.000000
  0C   1dx2y2     0.007621 -0.005866  0.019010  0.003692  0.000000  0.004774
  0C   1dxy       0.017247  0.002587 -0.008797  0.003033  0.000000 -0.021073
  1C   1s        -0.032771  0.000002 -0.010228 -0.007488 -0.000000 -0.002533
  1C   2s        -0.051587  0.000001 -0.016120 -0.011800 -0.000000 -0.004110
  1C   1pz        0.000000 -0.000000  0.000000  0.000000 -0.100495 -0.000000
  1C   1px        0.027611  0.115540 -0.031113 -0.065038  0.000000 -0.033940
  1C   1py        0.054419 -0.058467 -0.111628 -0.059479 -0.000000 -0.099242
  1C   3s         0.140684  0.000074  0.048305  0.035428  0.000000  0.015085
  1C   2pz       -0.000000  0.000000  0.000000  0.000000 -0.156913 -0.000000
  1C   2px        0.038324  0.162872 -0.039083 -0.095451  0.000000 -0.047114
  1C   2py        0.075359 -0.082580 -0.156463 -0.079728  0.000000 -0.137681
  1C   4s         0.146847 -0.002016  0.044317  0.033504 -0.000000 -0.008337
  1C   3pz        0.000000 -0.000000  0.000000 -0.000000 -0.108980  0.000000
  1C   3px        0.018833  0.081127 -0.044162 -0.028943  0.000000 -0.039817
  1C   3py        0.035965 -0.041068 -0.084333 -0.063052  0.000000 -0.100086
  1C   5s        -0.115493  0.015083 -0.051786  0.004182 -0.000000 -0.026257
  1C   4pz       -0.000000  0.000000 -0.000000  0.000000 -0.005001 -0.000000
  1C   4px        0.014113  0.007781  0.021089 -0.032145 -0.000000  0.016487
  1C   4py        0.023761 -0.003998 -0.017851  0.004181  0.000000 -0.013284
  1C   1dz2      -0.001540  0.000043  0.000421  0.000362 -0.000000  0.000082
  1C   1dxz      -0.000000  0.000000 -0.000000  0.000000  0.005890 -0.000000
  1C   1dyz      -0.000000 -0.000000 -0.000000  0.000000  0.011635  0.000000
  1C   1dx2y2    -0.011272 -0.005172 -0.007955  0.015206 -0.000000  0.015626
  1C   1dxy       0.015190 -0.003864 -0.010126  0.008117  0.000000 -0.024431
  2C   1s         0.032740 -0.000029 -0.011598  0.005222  0.000000  0.001020
  2C   2s         0.051532 -0.000052 -0.018296  0.008246  0.000000  0.001662
  2C   1pz        0.000000  0.000000  0.000000  0.000000 -0.100523 -0.000000
  2C   1px       -0.061049 -0.007295 -0.129025  0.055046 -0.000000  0.035008
  2C   1py       -0.003419  0.129279  0.008502  0.038494  0.000000  0.115840
  2C   3s        -0.140337  0.000260  0.055345 -0.025011 -0.000000 -0.006210
  2C   2pz        0.000000  0.000000  0.000000  0.000000 -0.156718 -0.000000
  2C   2px       -0.084274 -0.010117 -0.178165  0.075559 -0.000000  0.048653
  2C   2py       -0.004721  0.181978  0.014545  0.059913  0.000000  0.159107
  2C   4s        -0.149890 -0.000978  0.045009 -0.022700  0.000000  0.003155
  2C   3pz        0.000000  0.000000 -0.000000  0.000000 -0.109277 -0.000000
  2C   3px       -0.042011 -0.005738 -0.107595  0.049734 -0.000000  0.037922
  2C   3py       -0.001844  0.094028 -0.006503  0.000151 -0.000000  0.105126
  2C   5s         0.108124 -0.007265 -0.043859  0.012922  0.000000  0.005372
  2C   4pz        0.000000 -0.000000  0.000000 -0.000000 -0.007003  0.000000
  2C   4px       -0.027708  0.000603 -0.014726  0.008208 -0.000000  0.004270
  2C   4py       -0.001260 -0.010787  0.005856  0.026766  0.000000 -0.015521
  2C   1dz2       0.001622  0.000017  0.000675 -0.000311  0.000000 -0.000055
  2C   1dxz       0.000000 -0.000000 -0.000000 -0.000000  0.013082  0.000000
  2C   1dyz      -0.000000 -0.000000  0.000000 -0.000000  0.000719  0.000000
  2C   1dx2y2    -0.018832  0.000688 -0.002898  0.003811 -0.000000  0.013061
  2C   1dxy      -0.002077 -0.006380 -0.008892 -0.018934 -0.000000 -0.013341
  3H   1s         0.085763 -0.000075 -0.082706 -0.059965  0.000000 -0.101084
  3H   2s         0.115778  0.000419 -0.119574 -0.086209 -0.000000 -0.149607
  3H   3s         0.041305 -0.000670 -0.041433 -0.031552  0.000000 -0.081555
  3H   1pz        0.000000  0.000000  0.000000  0.000000 -0.007649 -0.000000
  3H   1px       -0.003759  0.006467  0.005587  0.000925  0.000000  0.003445
  3H   1py       -0.007426 -0.003335  0.007422  0.006915  0.000000  0.004722
  4C   1s        -0.032739  0.000029  0.011597 -0.005222  0.000000  0.001019
  4C   2s        -0.051532  0.000052  0.018296 -0.008245  0.000000  0.001661
  4C   1pz       -0.000000 -0.000000  0.000000  0.000000 -0.100526 -0.000000
  4C   1px       -0.061045 -0.007296 -0.129024  0.055049  0.000000 -0.035005
  4C   1py       -0.003418  0.129283  0.008498  0.038494  0.000000 -0.115836
  4C   3s         0.140335 -0.000259 -0.055344  0.025010  0.000000 -0.006206
  4C   2pz       -0.000000  0.000000  0.000000  0.000000 -0.156722 -0.000000
  4C   2px       -0.084269 -0.010119 -0.178165  0.075564 -0.000000 -0.048648
  4C   2py       -0.004719  0.181983  0.014541  0.059913 -0.000000 -0.159101
  4C   4s         0.149888  0.000977 -0.045008  0.022697 -0.000000  0.003162
  4C   3pz       -0.000000 -0.000000 -0.000000 -0.000000 -0.109280  0.000000
  4C   3px       -0.042009 -0.005739 -0.107595  0.049737 -0.000000 -0.037919
  4C   3py       -0.001843  0.094030 -0.006506  0.000151  0.000000 -0.105122
  4C   5s        -0.108126  0.007265  0.043860 -0.012922 -0.000000  0.005374
  4C   4pz       -0.000000  0.000000 -0.000000  0.000000 -0.007003 -0.000000
  4C   4px       -0.027708  0.000603 -0.014726  0.008208 -0.000000 -0.004269
  4C   4py       -0.001260 -0.010784  0.005858  0.026766 -0.000000  0.015523
  4C   1dz2      -0.001622 -0.000017 -0.000675  0.000311 -0.000000 -0.000055
  4C   1dxz       0.000000  0.000000  0.000000  0.000000 -0.013083  0.000000
  4C   1dyz       0.000000 -0.000000  0.000000 -0.000000 -0.000719  0.000000
  4C   1dx2y2     0.018832 -0.000688  0.002898 -0.003812  0.000000  0.013062
  4C   1dxy       0.002077  0.006381  0.008892  0.018935  0.000000 -0.013341
  5H   1s        -0.085524  0.000021  0.010653 -0.101697 -0.000000  0.060860
  5H   2s        -0.115759  0.000499  0.015842 -0.147777  0.000000  0.090733
  5H   3s        -0.040573 -0.001246  0.003315 -0.051104 -0.000000  0.047789
  5H   1pz        0.000000 -0.000000 -0.000000  0.000000 -0.007615  0.000000
  5H   1px       -0.004581 -0.006072  0.003006 -0.005895  0.000000  0.007070
[...]
                   2.88885   2.91080   2.92683   2.92766   3.07668   3.10580
                   0.00000   0.00000   0.00000   0.00000   0.00000   0.00000
                  --------  --------  --------  --------  --------  --------
 0 C  s               0.0       0.0       0.0       0.2       0.0       0.0
 0 C  pz             23.9       0.0       0.0       0.0      15.5       0.0
 0 C  px              0.0       3.2       0.4       2.4       0.0      11.1
 0 C  py              0.0       1.2       0.5       5.3       0.0       4.7
 0 C  dz2             0.0       0.0       0.0       0.5       0.0       0.0
 0 C  dxz             0.2       0.0       0.0       0.0       0.3       0.0
 0 C  dyz             0.0       0.0       0.0       0.0       0.8       0.0
 0 C  dx2y2           0.0       7.6       0.7       2.7       0.0       0.6
 0 C  dxy             0.0       1.3       1.4      10.9       0.0       0.1
 1 C  s               0.0       0.0       0.2       0.0       0.0       0.0
 1 C  pz             25.4       0.0       0.0       0.0      15.5       0.0
 1 C  px              0.0       3.6       1.6       0.4       0.0      12.6
 1 C  py              0.0       0.8       5.6       1.0       0.0       3.2
 1 C  dz2             0.0       0.0       0.4       0.0       0.0       0.0
 1 C  dxz             0.1       0.0       0.0       0.0       0.2       0.0
 1 C  dyz             0.0       0.0       0.0       0.0       0.9       0.0
 1 C  dx2y2           0.0       6.0       5.7       0.1       0.0       0.5
 1 C  dxy             0.0       2.9       7.1       2.8       0.0       0.3
 2 C  s               0.0       0.0       0.1       0.1       0.0       0.0
 2 C  pz              0.0       0.0       0.0       0.0      15.4       0.0
 2 C  px              0.0       0.0       4.4       3.5       0.0       0.0
 2 C  py              0.0       4.4       0.3       0.3       0.0      15.7
 2 C  dz2             0.0       0.0       0.3       0.2       0.0       0.0
 2 C  dxz             0.0       0.0       0.0       0.0       1.1       0.0
 2 C  dyz             0.3       0.0       0.0       0.0       0.0       0.0
 2 C  dx2y2           0.0       0.1       8.3       5.7       0.0       0.0
 2 C  dxy             0.0       9.0       0.2       1.3       0.0       0.7
 3 H  s               0.0       0.0       5.8       0.6       0.0       0.0
 3 H  px              0.0       2.6       0.5       0.4       0.0       0.1
 3 H  py              0.0       0.6       0.6       0.5       0.0       0.0
 4 C  s               0.0       0.0       0.1       0.1       0.0       0.0
 4 C  pz              0.0       0.0       0.0       0.0      15.4       0.0
 4 C  px              0.0       0.0       4.4       3.5       0.0       0.0
 4 C  py              0.0       4.4       0.3       0.3       0.0      15.7
 4 C  dz2             0.0       0.0       0.3       0.2       0.0       0.0
 4 C  dxz             0.0       0.0       0.0       0.0       1.1       0.0
 4 C  dyz             0.3       0.0       0.0       0.0       0.0       0.0
 4 C  dx2y2           0.0       0.1       8.3       5.7       0.0       0.0
 4 C  dxy             0.0       9.0       0.2       1.3       0.0       0.7
 5 H  s               0.0       0.0       0.3       6.1       0.0       0.0
 5 H  px              0.0       2.3       0.4       0.5       0.0       0.1
 5 H  py              0.0       0.9       0.5       0.6       0.0       0.0
 6 C  s               0.0       0.0       0.2       0.0       0.0       0.0
 6 C  pz             25.4       0.0       0.0       0.0      15.5       0.0
 6 C  px              0.0       3.6       1.6       0.4       0.0      12.6
 6 C  py              0.0       0.8       5.6       1.0       0.0       3.2
 6 C  dz2             0.0       0.0       0.4       0.0       0.0       0.0
 6 C  dxz             0.1       0.0       0.0       0.0       0.2       0.0
 6 C  dyz             0.0       0.0       0.0       0.0       0.9       0.0
 6 C  dx2y2           0.0       6.0       5.7       0.1       0.0       0.5
 6 C  dxy             0.0       2.9       7.1       2.8       0.0       0.3
 7 H  s               0.0       0.0       3.6       2.8       0.0       0.0
 7 H  px              0.0       0.0       0.6       0.6       0.0       0.0
 7 H  py              0.0       3.3       0.4       0.4       0.0       0.1
 8 C  s               0.0       0.0       0.0       0.2       0.0       0.0
 8 C  pz             23.9       0.0       0.0       0.0      15.5       0.0
 8 C  px              0.0       3.2       0.4       2.4       0.0      11.1
 8 C  py              0.0       1.2       0.5       5.3       0.0       4.7
 8 C  dz2             0.0       0.0       0.0       0.5       0.0       0.0
 8 C  dxz             0.2       0.0       0.0       0.0       0.3       0.0
 8 C  dyz             0.0       0.0       0.0       0.0       0.8       0.0
 8 C  dx2y2           0.0       7.6       0.7       2.7       0.0       0.6
 8 C  dxy             0.0       1.3       1.4      10.9       0.0       0.1
 9 H  s               0.0       0.0       3.6       2.8       0.0       0.0
 9 H  px              0.0       0.0       0.6       0.6       0.0       0.0
 9 H  py              0.0       3.3       0.4       0.4       0.0       0.1
10 H  s               0.0       0.0       5.8       0.6       0.0       0.0
10 H  px              0.0       2.6       0.5       0.4       0.0       0.1
10 H  py              0.0       0.6       0.6       0.5       0.0       0.0
11 H  s               0.0       0.0       0.3       6.1       0.0       0.0
11 H  px              0.0       2.3       0.4       0.5       0.0       0.1
11 H  py              0.0       0.9       0.5       0.6       0.0       0.0

                    150       151       152       153       154       155   
                   3.34066   3.34118   3.48101   3.48142   3.49758   3.67856
                   0.00000   0.00000   0.00000   0.00000   0.00000   0.00000
                  --------  --------  --------  --------  --------  --------
 0 C  s               1.3       1.1       1.2       0.4       0.8       0.5
 0 C  px              4.2      14.1       9.9       1.0       3.7       0.6
 0 C  py              9.2       0.9       5.4       9.3       8.8       1.5
 0 C  dz2             0.2       0.1       0.1       0.0       0.0       0.1
 0 C  dx2y2           0.2       0.5       0.4       0.0       0.2       1.7
 0 C  dxy             0.3       0.0       0.9       0.5       0.9       8.9
 1 C  s               2.2       0.2       1.1       0.4       0.8       0.5
 1 C  px              0.3      19.9       8.6       1.4       2.5       0.4
 1 C  py              5.5       2.6       6.4       9.2      10.0       1.7
 1 C  dz2             0.3       0.0       0.1       0.0       0.0       0.1
 1 C  dx2y2           0.0       0.6       0.7       0.0       0.4       3.7
 1 C  dxy             0.2       0.2       0.6       0.6       0.7       6.9
 2 C  s               0.1       2.3       0.0       1.5       0.8       0.5
 2 C  px              0.0       4.0       0.0      17.5      12.6       2.1
 2 C  py             23.3       1.0       8.1       0.0       0.0       0.0
 2 C  dz2             0.0       0.3       0.0       0.1       0.0       0.1
 2 C  dx2y2           0.0       0.1       0.0       1.7       1.0      10.5
 2 C  dxy             0.8       0.1       0.2       0.0       0.0       0.1
 3 H  s               0.8       0.1       2.3       0.8       1.6       3.0
 3 H  px              0.1       0.0       0.1       0.1       0.1       0.1
 3 H  py              0.3       0.0       0.6       0.2       0.5       0.2
 4 C  s               0.1       2.3       0.0       1.5       0.8       0.5
 4 C  px              0.0       4.0       0.0      17.5      12.6       2.1
 4 C  py             23.3       1.0       8.1       0.0       0.0       0.0
 4 C  dz2             0.0       0.3       0.0       0.1       0.0       0.1
 4 C  dx2y2           0.0       0.1       0.0       1.7       1.0      10.5
 4 C  dxy             0.8       0.1       0.2       0.0       0.0       0.1
 5 H  s               0.5       0.4       2.4       0.7       1.6       3.0
 5 H  px              0.0       0.1       0.2       0.1       0.2       0.1
 5 H  py              0.2       0.1       0.6       0.2       0.4       0.2
 6 C  s               2.2       0.2       1.1       0.4       0.8       0.5
 6 C  px              0.3      19.9       8.6       1.4       2.5       0.4
 6 C  py              5.5       2.6       6.4       9.2      10.0       1.7
 6 C  dz2             0.3       0.0       0.1       0.0       0.0       0.1
 6 C  dx2y2           0.0       0.6       0.7       0.0       0.4       3.7
 6 C  dxy             0.2       0.2       0.6       0.6       0.7       6.9
 7 H  s               0.0       0.8       0.0       3.2       1.6       3.0
 7 H  px              0.0       0.4       0.0       1.0       0.6       0.3
 8 C  s               1.3       1.1       1.2       0.4       0.8       0.5
 8 C  px              4.2      14.1       9.9       1.0       3.7       0.6
 8 C  py              9.2       0.9       5.4       9.3       8.8       1.5
 8 C  dz2             0.2       0.1       0.1       0.0       0.0       0.1
 8 C  dx2y2           0.2       0.5       0.4       0.0       0.2       1.7
 8 C  dxy             0.3       0.0       0.9       0.5       0.9       8.9
 9 H  s               0.0       0.8       0.0       3.2       1.6       3.0
 9 H  px              0.0       0.4       0.0       1.0       0.6       0.3
10 H  s               0.8       0.1       2.3       0.8       1.6       3.0
10 H  px              0.1       0.0       0.1       0.1       0.1       0.1
10 H  py              0.3       0.0       0.6       0.2       0.5       0.2
11 H  s               0.5       0.4       2.4       0.7       1.6       3.0
11 H  px              0.0       0.1       0.2       0.1       0.2       0.1
11 H  py              0.2       0.1       0.6       0.2       0.4       0.2

                    156       157       158       159       160       161   
                   3.98244   3.98257   4.07893   4.14799   4.14883   4.84431
                   0.00000   0.00000   0.00000   0.00000   0.00000   0.00000
                  --------  --------  --------  --------  --------  --------
 0 C  s               0.4       0.3       0.6       0.2       0.9       0.0
 0 C  px              8.8       0.1       3.9      16.1       0.1      10.0
 0 C  py              5.1      10.5       9.0       2.2       8.3       4.3
 0 C  dx2y2           0.9       0.0       0.2       2.3       0.0       1.9
 0 C  dxy             1.2       1.6       0.9       0.0       1.4       0.4
 1 C  s               0.6       0.1       0.6       0.4       0.7       0.0
 1 C  px              6.4       0.9       2.6      15.2       2.4      11.4
 1 C  py             12.0       5.1      10.3       0.1       9.0       2.9
 1 C  dx2y2           1.4       0.0       0.4       2.0       0.1       1.5
 1 C  dxy             1.4       0.8       0.7       0.0       1.7       0.8
 2 C  s               0.0       0.7       0.6       1.1       0.0       0.0
 2 C  px              0.7      19.7      12.8       6.0       0.3       0.0
 2 C  py              3.6       0.3       0.0       0.5      19.9      14.3
 2 C  dx2y2           0.0       3.1       1.0       1.3       0.0       0.0
 2 C  dxy             0.5       0.0       0.0       0.0       2.5       2.3
 3 H  s               3.1       0.4       1.5       0.6       1.0       0.0
 3 H  px              0.2       0.0       0.1       0.0       0.0       0.0
 3 H  py              0.7       0.1       0.5       0.1       0.1       0.0
 4 C  s               0.0       0.7       0.6       1.1       0.0       0.0
 4 C  px              0.7      19.7      12.8       6.0       0.3       0.0
 4 C  py              3.6       0.3       0.0       0.5      19.9      14.3
 4 C  dx2y2           0.0       3.1       1.0       1.3       0.0       0.0
 4 C  dxy             0.5       0.0       0.0       0.0       2.5       2.3
 5 H  s               2.1       1.4       1.5       0.2       1.3       0.0
 5 H  px              0.2       0.1       0.2       0.0       0.1       0.0
 5 H  py              0.4       0.3       0.4       0.0       0.1       0.0
 6 C  s               0.6       0.1       0.6       0.4       0.7       0.0
 6 C  px              6.4       0.9       2.6      15.2       2.4      11.4
 6 C  py             12.0       5.1      10.3       0.1       9.0       2.9
 6 C  dx2y2           1.4       0.0       0.4       2.0       0.1       1.5
 6 C  dxy             1.4       0.8       0.7       0.0       1.7       0.8
 7 H  s               0.1       3.4       1.5       1.5       0.0       0.0
 7 H  px              0.0       1.0       0.6       0.2       0.0       0.0
 8 C  s               0.4       0.3       0.6       0.2       0.9       0.0
 8 C  px              8.8       0.1       3.9      16.1       0.1      10.0
 8 C  py              5.1      10.5       9.0       2.2       8.3       4.3
 8 C  dx2y2           0.9       0.0       0.2       2.3       0.0       1.9
 8 C  dxy             1.2       1.6       0.9       0.0       1.4       0.4
 9 H  s               0.1       3.4       1.5       1.5       0.0       0.0
 9 H  px              0.0       1.0       0.6       0.2       0.0       0.0
10 H  s               3.1       0.4       1.5       0.6       1.0       0.0
10 H  px              0.2       0.0       0.1       0.0       0.0       0.0
10 H  py              0.7       0.1       0.5       0.1       0.1       0.0
11 H  s               2.1       1.4       1.5       0.2       1.3       0.0
11 H  px              0.2       0.1       0.2       0.0       0.1       0.0
11 H  py              0.4       0.3       0.4       0.0       0.1       0.0

                    162       163       164       165       166       167   
                  23.58233  23.96131  23.96142  24.09128  24.09179  24.20055
                   0.00000   0.00000   0.00000   0.00000   0.00000   0.00000
                  --------  --------  --------  --------  --------  --------
 0 C  s              16.6       0.2      32.9      11.3      21.9      16.6
 1 C  s              16.6      26.9       6.1       5.6      27.6      16.6
 2 C  s              16.6      22.5      10.6      32.8       0.3      16.5
 4 C  s              16.6      22.5      10.6      32.8       0.3      16.5
 6 C  s              16.6      26.9       6.1       5.6      27.6      16.6
 8 C  s              16.6       0.2      32.9      11.3      21.9      16.6



                      *****************************
                      * MAYER POPULATION ANALYSIS *
                      *****************************

  NA   - Mulliken gross atomic population
  ZA   - Total nuclear charge
  QA   - Mulliken gross atomic charge
  VA   - Mayer's total valence
  BVA  - Mayer's bonded valence
  FA   - Mayer's free valence

  ATOM       NA         ZA         QA         VA         BVA        FA
  0 C      6.1328     6.0000    -0.1328     4.0346     4.0346     0.0000
  1 C      6.1011     6.0000    -0.1011     4.0013     4.0013     0.0000
  2 C      6.1574     6.0000    -0.1574     4.0618     4.0618    -0.0000
  3 H      0.8737     1.0000     0.1263     0.9639     0.9639    -0.0000
  4 C      6.1574     6.0000    -0.1574     4.0618     4.0618     0.0000
  5 H      0.8731     1.0000     0.1269     0.9633     0.9633    -0.0000
  6 C      6.1011     6.0000    -0.1011     4.0013     4.0013     0.0000
  7 H      0.8620     1.0000     0.1380     0.9588     0.9588    -0.0000
  8 C      6.1328     6.0000    -0.1328     4.0346     4.0346    -0.0000
  9 H      0.8620     1.0000     0.1380     0.9588     0.9588    -0.0000
 10 H      0.8737     1.0000     0.1263     0.9639     0.9639    -0.0000
 11 H      0.8731     1.0000     0.1269     0.9633     0.9633    -0.0000

  Mayer bond orders larger than 0.100000
B(  0-C ,  1-C ) :   1.5045 B(  0-C ,  4-C ) :   1.5292 B(  0-C ,  5-H ) :   0.9525 
B(  1-C ,  2-C ) :   1.5185 B(  1-C ,  3-H ) :   0.9401 B(  2-C ,  8-C ) :   1.5292 
B(  2-C ,  9-H ) :   0.9455 B(  4-C ,  6-C ) :   1.5185 B(  4-C ,  7-H ) :   0.9455 
B(  6-C ,  8-C ) :   1.5045 B(  6-C , 10-H ) :   0.9401 B(  8-C , 11-H ) :   0.9525 


-------
TIMINGS
-------

Total SCF time: 0 days 0 hours 0 min 17 sec 

Total time                  ....      17.496 sec
Sum of individual times     ....      16.929 sec  ( 96.8%)

Fock matrix formation       ....      15.594 sec  ( 89.1%)
  XC integration            ....       1.836 sec  ( 11.8% of F)
    Basis function eval.    ....       0.464 sec  ( 25.3% of XC)
    Density eval.           ....       0.412 sec  ( 22.4% of XC)
    XC-Functional eval.     ....       0.092 sec  (  5.0% of XC)
    XC-Potential eval.      ....       0.755 sec  ( 41.1% of XC)
Diagonalization             ....       0.009 sec  (  0.0%)
Density matrix formation    ....       0.001 sec  (  0.0%)
Population analysis         ....       0.037 sec  (  0.2%)
Initial guess               ....       0.014 sec  (  0.1%)
Orbital Transformation      ....       0.000 sec  (  0.0%)
Orbital Orthonormalization  ....       0.010 sec  (  0.1%)
DIIS solution               ....       0.002 sec  (  0.0%)
SOSCF solution              ....       0.009 sec  (  0.0%)
Grid generation             ....       1.264 sec  (  7.2%)

-------------------------   --------------------
FINAL SINGLE POINT ENERGY      -232.156919181903
-------------------------   --------------------

                                *** OPTIMIZATION RUN DONE ***

                            ***************************************
                            *     ORCA property calculations      *
                            ***************************************

                                    ---------------------
                                    Active property flags
                                    ---------------------
   (+) Dipole Moment


------------------------------------------------------------------------------
                       ORCA ELECTRIC PROPERTIES CALCULATION
------------------------------------------------------------------------------

Dipole Moment Calculation                       ... on
Quadrupole Moment Calculation                   ... off
Polarizability Calculation                      ... off
GBWName                                         ... ben.gbw
Electron density file                           ... ben.scfp
The origin for moment calculation is the CENTER OF MASS  = (-10.713852, -1.324928 -0.000000)

-------------
DIPOLE MOMENT
-------------
                                X             Y             Z
Electronic contribution:     -0.00000      -0.00000      -0.00000
Nuclear contribution   :      0.00000       0.00000       0.00000
                        -----------------------------------------
Total Dipole Moment    :      0.00000      -0.00000       0.00000
                        -----------------------------------------
Magnitude (a.u.)       :      0.00000
Magnitude (Debye)      :      0.00000



--------------------
Rotational spectrum 
--------------------
 
Rotational constants in cm-1:     0.190036     0.190015     0.095013 
Rotational constants in MHz :  5697.132674  5696.509379  2848.410505 

 Dipole components along the rotational axes: 
x,y,z [a.u.] :    -0.000001     0.000001     0.000000 
x,y,z [Debye]:    -0.000002     0.000001     0.000000 

 

Timings for individual modules:

Sum of individual times         ...      283.569 sec (=   4.726 min)
GTO integral calculation        ...        2.223 sec (=   0.037 min)   0.8 %
SCF iterations                  ...      179.687 sec (=   2.995 min)  63.4 %
SCF Gradient evaluation         ...      100.288 sec (=   1.671 min)  35.4 %
Geometry relaxation             ...        1.371 sec (=   0.023 min)   0.5 %
                             ****ORCA TERMINATED NORMALLY****
TOTAL RUN TIME: 0 days 0 hours 4 minutes 45 seconds 202 msec
