
                                 *****************
                                 * O   R   C   A *
                                 *****************

           --- An Ab Initio, DFT and Semiempirical electronic structure package ---

                  #######################################################
                  #                        -***-                        #
                  #          Department of theory and spectroscopy      #
                  #               Directorship: Frank Neese             #
                  #        Max Planck Institute fuer Kohlenforschung    #
                  #                Kaiser Wilhelm Platz 1               #
                  #                 D-45470 Muelheim/Ruhr               #
                  #                      Germany                        #
                  #                                                     #
                  #                  All rights reserved                #
                  #                        -***-                        #
                  #######################################################


                         Program Version 4.2.1 -  RELEASE  -


 With contributions from (in alphabetic order):
   Daniel Aravena         : Magnetic Suceptibility
   Michael Atanasov       : Ab Initio Ligand Field Theory (pilot matlab implementation)
   Alexander A. Auer      : GIAO ZORA, VPT2
   Ute Becker             : Parallelization
   Giovanni Bistoni       : ED, misc. LED, open-shell LED, HFLD
   Martin Brehm           : Molecular dynamics
   Dmytro Bykov           : SCF Hessian
   Vijay G. Chilkuri      : MRCI spin determinant printing, contributions to CSF-ICE
   Dipayan Datta          : RHF DLPNO-CCSD density
   Achintya Kumar Dutta   : EOM-CC, STEOM-CC
   Dmitry Ganyushin       : Spin-Orbit,Spin-Spin,Magnetic field MRCI
   Miquel Garcia          : C-PCM Hessian, Gaussian charge scheme
   Yang Guo               : DLPNO-NEVPT2, CIM, IAO-localization
   Andreas Hansen         : Spin unrestricted coupled pair/coupled cluster methods
   Benjamin Helmich-Paris : CASSCF linear response (MC-RPA)
   Lee Huntington         : MR-EOM, pCC
   Robert Izsak           : Overlap fitted RIJCOSX, COSX-SCS-MP3, EOM
   Christian Kollmar      : KDIIS, OOCD, Brueckner-CCSD(T), CCSD density
   Simone Kossmann        : Meta GGA functionals, TD-DFT gradient, OOMP2, MP2 Hessian
   Martin Krupicka        : AUTO-CI
   Lucas Lang             : DCDCAS
   Dagmar Lenk            : GEPOL surface, SMD
   Dimitrios Liakos       : Extrapolation schemes; Compound Job, initial MDCI parallelization
   Dimitrios Manganas     : Further ROCIS development; embedding schemes
   Dimitrios Pantazis     : SARC Basis sets
   Taras Petrenko         : DFT Hessian,TD-DFT gradient, ASA, ECA, R-Raman, ABS, FL, XAS/XES, NRVS
   Peter Pinski           : DLPNO-MP2, DLPNO-MP2 Gradient
   Christoph Reimann      : Effective Core Potentials
   Marius Retegan         : Local ZFS, SOC
   Christoph Riplinger    : Optimizer, TS searches, QM/MM, DLPNO-CCSD(T), (RO)-DLPNO pert. Triples
   Tobias Risthaus        : Range-separated hybrids, TD-DFT gradient, RPA, STAB
   Michael Roemelt        : Original ROCIS implementation
   Masaaki Saitow         : Open-shell DLPNO-CCSD energy and density
   Barbara Sandhoefer     : DKH picture change effects
   Avijit Sen             : IP-ROCIS
   Kantharuban Sivalingam : CASSCF convergence, NEVPT2, FIC-MRCI
   Bernardo de Souza      : ESD, SOC TD-DFT
   Georgi Stoychev        : AutoAux, RI-MP2 NMR
   Willem Van den Heuvel  : Paramagnetic NMR
   Boris Wezisla          : Elementary symmetry handling
   Frank Wennmohs         : Technical directorship


 We gratefully acknowledge several colleagues who have allowed us to
 interface, adapt or use parts of their codes:
   Stefan Grimme, W. Hujo, H. Kruse,             : VdW corrections, initial TS optimization,
                  C. Bannwarth                     DFT functionals, gCP, sTDA/sTD-DF
   Ed Valeev, F. Pavosevic, A. Kumar             : LibInt (2-el integral package), F12 methods
   Garnet Chan, S. Sharma, J. Yang, R. Olivares  : DMRG
   Ulf Ekstrom                                   : XCFun DFT Library
   Mihaly Kallay                                 : mrcc  (arbitrary order and MRCC methods)
   Andreas Klamt, Michael Diedenhofen            : otool_cosmo (COSMO solvation model)
   Jiri Pittner, Ondrej Demel                    : Mk-CCSD
   Frank Weinhold                                : gennbo (NPA and NBO analysis)
   Christopher J. Cramer and Donald G. Truhlar   : smd solvation model
   Lars Goerigk                                  : TD-DFT with DH, B97 family of functionals
   V. Asgeirsson, H. Jonsson                     : NEB implementation
   FAccTs GmbH                                   : IRC, NEB, NEB-TS, Multilevel, MM, QM/MM, CI optimization
   S Lehtola, MJT Oliveira, MAL Marques          : LibXC Library


 Your calculation uses the libint2 library for the computation of 2-el integrals
 For citations please refer to: http://libint.valeyev.net

 Your ORCA version has been built with support for libXC version: 4.2.3
 For citations please refer to: https://tddft.org/programs/libxc/

 This ORCA versions uses:
   CBLAS   interface :  Fast vector & matrix operations
   LAPACKE interface :  Fast linear algebra routines
   SCALAPACK package :  Parallel linear algebra routines


----- Orbital basis set information -----
Your calculation utilizes the basis: 6-311+G(d,p)
   H, Li - Ne  : R. Krishnan, J. S. Binkley, R. Seeger and J. A. Pople, J. Chem. Phys. 72, 650 (1980).
   Na - Ar     : A. D. McLean and G. S. Chandler J. Chem. Phys. 72, 5639, (1980).
   K  - Ca     : J.-P. Blaudeau, M. P. McGrath, L. A. Curtiss and L. Radom, J. Chem. Phys. 107, 5016 (1997).
   Ga - Kr     : L. A. Curtiss, M. P. McGrath, J.-P. Blandeau, N. E. Davis, R. C. Binning and L. Radom, J. Chem. Phys. 103, 6104 (1995).
   Pol./Diff.
   H, Li - Cl  : T. Clark, J. Chandrasekhar and P. v. R. Schleyer, J. Comp. Chem. 4, 294 (1983).
   H - Ne      : M. J. Frisch, J. A. Pople and J. S. Binkley, J. Chem. Phys. 80, 3265 (1984).

----- AuxJ basis set information -----
Your calculation utilizes the auxiliary basis: def2/J
   F. Weigend, Phys. Chem. Chem. Phys. 8, 1057 (2006).

================================================================================
                                        WARNINGS
                       Please study these warnings very carefully!
================================================================================


WARNING: Geometry Optimization
  ===> : Switching off AutoStart
         For restart on a previous wavefunction, please use MOREAD

INFO   : the flag for use of LIBINT has been found!

================================================================================
                                       INPUT FILE
================================================================================
NAME = ben.inp
|  1> ! PBE 6-311+G(d,p) Opt 
|  2> 
|  3> ! Normalprint
|  4> %output
|  5> Print[P_Basis] 2
|  6> Print[P_MOs] 1
|  7> end
|  8> 
|  9> * xyz 0 1
| 10>    C       -6.43508        0.46988        0.00000
| 11>    C       -5.03818        0.54737       -0.00000
| 12>    C       -4.27263       -0.62364       -0.00000
| 13>    H       -4.54975        1.51323       -0.00000
| 14>    C       -7.06642       -0.77860        0.00000
| 15>    H       -7.02732        1.37581        0.00000
| 16>    C       -6.30087       -1.94961        0.00000
| 17>    H       -8.14710       -0.83854        0.00000
| 18>    C       -4.90398       -1.87213        0.00000
| 19>    H       -3.19195       -0.56370       -0.00000
| 20>    H       -6.78930       -2.91548        0.00000
| 21>    H       -4.31173       -2.77805        0.00000
| 22> *
| 23> 
| 24>                          ****END OF INPUT****
================================================================================

                       *****************************
                       * Geometry Optimization Run *
                       *****************************

Geometry optimization settings:
Update method            Update   .... BFGS
Choice of coordinates    CoordSys .... Z-matrix Internals
Initial Hessian          InHess   .... Almoef's Model

Convergence Tolerances:
Energy Change            TolE     ....  5.0000e-06 Eh
Max. Gradient            TolMAXG  ....  3.0000e-04 Eh/bohr
RMS Gradient             TolRMSG  ....  1.0000e-04 Eh/bohr
Max. Displacement        TolMAXD  ....  4.0000e-03 bohr
RMS Displacement         TolRMSD  ....  2.0000e-03 bohr
Strict Convergence                ....  False
------------------------------------------------------------------------------
                        ORCA OPTIMIZATION COORDINATE SETUP
------------------------------------------------------------------------------

The optimization will be done in new redundant internal coordinates
Making redundant internal coordinates   ...  (new redundants) done
Evaluating the initial hessian          ...  (Almloef) done
Evaluating the coordinates              ...  done
Calculating the B-matrix                .... done
Calculating the G-matrix                .... done
Diagonalizing the G-matrix              .... done
The first mode is                       ....   24
The number of degrees of freedom        ....   30

    -----------------------------------------------------------------
                    Redundant Internal Coordinates


    -----------------------------------------------------------------
         Definition                    Initial Value    Approx d2E/dq
    -----------------------------------------------------------------
      1. B(C   1,C   0)                  1.3990         0.604371   
      2. B(C   2,C   1)                  1.3990         0.604373   
      3. B(H   3,C   1)                  1.0823         0.370384   
      4. B(C   4,C   0)                  1.3990         0.604404   
      5. B(H   5,C   0)                  1.0823         0.370379   
      6. B(C   6,C   4)                  1.3990         0.604373   
      7. B(H   7,C   4)                  1.0823         0.370376   
      8. B(C   8,C   6)                  1.3990         0.604394   
      9. B(C   8,C   2)                  1.3990         0.604374   
     10. B(H   9,C   2)                  1.0823         0.370376   
     11. B(H  10,C   6)                  1.0823         0.370372   
     12. B(H  11,C   8)                  1.0823         0.370383   
     13. A(C   1,C   0,H   5)          119.9990         0.353065   
     14. A(C   4,C   0,H   5)          120.0007         0.353068   
     15. A(C   1,C   0,C   4)          120.0002         0.430105   
     16. A(C   0,C   1,C   2)          119.9996         0.430101   
     17. A(C   0,C   1,H   3)          120.0006         0.353066   
     18. A(C   2,C   1,H   3)          119.9998         0.353066   
     19. A(C   8,C   2,H   9)          120.0000         0.353065   
     20. A(C   1,C   2,H   9)          120.0001         0.353065   
     21. A(C   1,C   2,C   8)          120.0000         0.430102   
     22. A(C   0,C   4,C   6)          120.0001         0.430105   
     23. A(C   6,C   4,H   7)          120.0001         0.353065   
     24. A(C   0,C   4,H   7)          119.9998         0.353068   
     25. A(C   4,C   6,H  10)          120.0000         0.353064   
     26. A(C   4,C   6,C   8)          120.0000         0.430104   
     27. A(C   8,C   6,H  10)          119.9999         0.353066   
     28. A(C   2,C   8,C   6)          120.0000         0.430104   
     29. A(C   6,C   8,H  11)          120.0001         0.353068   
     30. A(C   2,C   8,H  11)          119.9998         0.353066   
     31. D(H   3,C   1,C   0,C   4)    180.0000         0.025200   
     32. D(H   3,C   1,C   0,H   5)      0.0000         0.025200   
     33. D(C   2,C   1,C   0,H   5)    180.0000         0.025200   
     34. D(C   2,C   1,C   0,C   4)      0.0000         0.025200   
     35. D(H   9,C   2,C   1,C   0)    180.0000         0.025201   
     36. D(C   8,C   2,C   1,C   0)      0.0000         0.025201   
     37. D(C   8,C   2,C   1,H   3)    180.0000         0.025201   
     38. D(H   9,C   2,C   1,H   3)      0.0000         0.025201   
     39. D(H   7,C   4,C   0,H   5)      0.0000         0.025203   
     40. D(H   7,C   4,C   0,C   1)    180.0000         0.025203   
     41. D(C   6,C   4,C   0,H   5)    180.0000         0.025203   
     42. D(C   6,C   4,C   0,C   1)      0.0000         0.025203   
     43. D(H  10,C   6,C   4,C   0)    180.0000         0.025201   
     44. D(C   8,C   6,C   4,H   7)    180.0000         0.025201   
     45. D(C   8,C   6,C   4,C   0)      0.0000         0.025201   
     46. D(H  10,C   6,C   4,H   7)      0.0000         0.025201   
     47. D(H  11,C   8,C   6,H  10)      0.0000         0.025202   
     48. D(C   2,C   8,C   6,H  10)    180.0000         0.025202   
     49. D(C   2,C   8,C   6,C   4)      0.0000         0.025202   
     50. D(H  11,C   8,C   2,H   9)      0.0000         0.025201   
     51. D(H  11,C   8,C   2,C   1)    180.0000         0.025201   
     52. D(H  11,C   8,C   6,C   4)    180.0000         0.025202   
     53. D(C   6,C   8,C   2,H   9)    180.0000         0.025201   
     54. D(C   6,C   8,C   2,C   1)      0.0000         0.025201   
    -----------------------------------------------------------------

Number of atoms                         .... 12
Number of degrees of freedom            .... 54

         *************************************************************
         *                GEOMETRY OPTIMIZATION CYCLE   1            *
         *************************************************************
---------------------------------
CARTESIAN COORDINATES (ANGSTROEM)
---------------------------------
  C     -6.435080    0.469880    0.000000
  C     -5.038180    0.547370   -0.000000
  C     -4.272630   -0.623640   -0.000000
  H     -4.549750    1.513230   -0.000000
  C     -7.066420   -0.778600    0.000000
  H     -7.027320    1.375810    0.000000
  C     -6.300870   -1.949610    0.000000
  H     -8.147100   -0.838540    0.000000
  C     -4.903980   -1.872130    0.000000
  H     -3.191950   -0.563700   -0.000000
  H     -6.789300   -2.915480    0.000000
  H     -4.311730   -2.778050    0.000000

----------------------------
CARTESIAN COORDINATES (A.U.)
----------------------------
  NO LB      ZA    FRAG     MASS         X           Y           Z
   0 C     6.0000    0    12.011  -12.160539    0.887945    0.000000
   1 C     6.0000    0    12.011   -9.520780    1.034379   -0.000000
   2 C     6.0000    0    12.011   -8.074101   -1.178509   -0.000000
   3 H     1.0000    0     1.008   -8.597781    2.859590   -0.000000
   4 C     6.0000    0    12.011  -13.353599   -1.471341    0.000000
   5 H     1.0000    0     1.008  -13.279710    2.599904    0.000000
   6 C     6.0000    0    12.011  -11.906919   -3.684229    0.000000
   7 H     1.0000    0     1.008  -15.395788   -1.584611    0.000000
   8 C     6.0000    0    12.011   -9.267179   -3.537813    0.000000
   9 H     1.0000    0     1.008   -6.031911   -1.065239   -0.000000
  10 H     1.0000    0     1.008  -12.829918   -5.509459    0.000000
  11 H     1.0000    0     1.008   -8.147989   -5.249754    0.000000

--------------------------------
INTERNAL COORDINATES (ANGSTROEM)
--------------------------------
 C      0   0   0     0.000000000000     0.00000000     0.00000000
 C      1   0   0     1.399047643971     0.00000000     0.00000000
 C      2   1   0     1.399046540541   119.99962302     0.00000000
 H      2   1   3     1.082335162738   120.00057361   180.00000000
 C      1   2   3     1.399032703692   120.00023178     0.00000000
 H      1   2   3     1.082338848282   119.99902710   180.00000000
 C      5   1   2     1.399046540541   120.00014520     0.00000000
 H      5   1   2     1.082341011881   119.99978881   180.00000000
 C      7   5   1     1.399037105476   120.00000924     0.00000000
 H      3   2   1     1.082341011881   120.00006599   180.00000000
 H      7   5   1     1.082344086601   120.00004226   180.00000000
 H      9   7   5     1.082335950110   120.00014608   180.00000121

---------------------------
INTERNAL COORDINATES (A.U.)
---------------------------
 C      0   0   0     0.000000000000     0.00000000     0.00000000
 C      1   0   0     2.643816895412     0.00000000     0.00000000
 C      2   1   0     2.643814810233   119.99962302     0.00000000
 H      2   1   3     2.045317042689   120.00057361   180.00000000
 C      1   2   3     2.643788662377   120.00023178     0.00000000
 H      1   2   3     2.045324007356   119.99902710   180.00000000
 C      5   1   2     2.643814810233   120.00014520     0.00000000
 H      5   1   2     2.045328095967   119.99978881   180.00000000
 C      7   5   1     2.643796980544   120.00000924     0.00000000
 H      3   2   1     2.045328095967   120.00006599   180.00000000
 H      7   5   1     2.045333906345   120.00004226   180.00000000
 H      9   7   5     2.045318530605   120.00014608   180.00000121

---------------------
BASIS SET INFORMATION
---------------------
There are 2 groups of distinct atoms

 Group   1 Type C   : 12s6p1d contracted to 5s4p1d pattern {63111/3111/1}
 Group   2 Type H   : 5s1p contracted to 3s1p pattern {311/1}

Atom   0C    basis set group =>   1
Atom   1C    basis set group =>   1
Atom   2C    basis set group =>   1
Atom   3H    basis set group =>   2
Atom   4C    basis set group =>   1
Atom   5H    basis set group =>   2
Atom   6C    basis set group =>   1
Atom   7H    basis set group =>   2
Atom   8C    basis set group =>   1
Atom   9H    basis set group =>   2
Atom  10H    basis set group =>   2
Atom  11H    basis set group =>   2

-------------------------
BASIS SET IN INPUT FORMAT
-------------------------

 # Basis set for element : H 
 NewGTO H 
 S 3 
   1      33.8650000000      0.0254938145
   2       5.0947900000      0.1903731086
   3       1.1587900000      0.8521614860
 S 1 
   1       0.3258400000      1.0000000000
 S 1 
   1       0.1027410000      1.0000000000
 P 1 
   1       0.7500000000      1.0000000000
  end;

 # Basis set for element : C 
 NewGTO C 
 S 6 
   1    4563.2400000000      0.0019666502
   2     682.0240000000      0.0152306019
   3     154.9730000000      0.0761269097
   4      44.4553000000      0.2608010331
   5      13.0290000000      0.6164620782
   6       1.8277300000      0.2210060280
 S 3 
   1      20.9642000000      0.1146600807
   2       4.8033100000      0.9199996477
   3       1.4593300000     -0.0030306821
 P 3 
   1      20.9642000000      0.0402486927
   2       4.8033100000      0.2375939567
   3       1.4593300000      0.8158538515
 S 1 
   1       0.4834560000      1.0000000000
 P 1 
   1       0.4834560000      1.0000000000
 S 1 
   1       0.1455850000      1.0000000000
 P 1 
   1       0.1455850000      1.0000000000
 S 1 
   1       0.0438000000      1.0000000000
 P 1 
   1       0.0438000000      1.0000000000
 D 1 
   1       0.6260000000      1.0000000000
  end;

---------------------------------
AUXILIARY/J BASIS SET INFORMATION
---------------------------------
There are 2 groups of distinct atoms

 Group   1 Type C   : 12s5p4d2f1g contracted to 6s4p3d1f1g pattern {711111/2111/211/2/1}
 Group   2 Type H   : 5s2p1d contracted to 3s1p1d pattern {311/2/1}

Atom   0C    basis set group =>   1
Atom   1C    basis set group =>   1
Atom   2C    basis set group =>   1
Atom   3H    basis set group =>   2
Atom   4C    basis set group =>   1
Atom   5H    basis set group =>   2
Atom   6C    basis set group =>   1
Atom   7H    basis set group =>   2
Atom   8C    basis set group =>   1
Atom   9H    basis set group =>   2
Atom  10H    basis set group =>   2
Atom  11H    basis set group =>   2

-------------------------------------
AUXILIARY/J BASIS SET IN INPUT FORMAT
-------------------------------------

 # Auxiliary/J basis set for element : H 
 NewAuxJGTO H 
 S 3 
   1      15.6752927000      0.1007184237
   2       3.6063578000      0.3404257499
   3       1.2080016000      0.6491996172
 S 1 
   1       0.4726794000      1.0000000000
 S 1 
   1       0.2018100000      1.0000000000
 P 2 
   1       2.0281365000      0.5596620919
   2       0.5358730000      0.5596620919
 D 1 
   1       2.2165124000      1.0000000000
  end;

 # Auxiliary/J basis set for element : C 
 NewAuxJGTO C 
 S 7 
   1    1861.0916331000      0.0134602335
   2     642.9939764000      0.0299160374
   3     235.1105725000      0.1008649584
   4      90.7028894000      0.2370970548
   5      36.7794552000      0.3924037254
   6      15.6046273000      0.3195862154
   7       6.8907294000      0.0530104441
 S 1 
   1       3.1478850000     -1.0000000000
 S 1 
   1       1.4777287000      1.0000000000
 S 1 
   1       0.7076466000      1.0000000000
 S 1 
   1       0.3430122000      1.0000000000
 S 1 
   1       0.1669453000      1.0000000000
 P 2 
   1      13.5472892000     -0.6769313712
   2       5.4669419000     -0.3779500978
 P 1 
   1       2.1751721000      1.0000000000
 P 1 
   1       0.8582194000      1.0000000000
 P 1 
   1       0.3376720000      1.0000000000
 D 2 
   1       5.9287253000     -0.3533329857
   2       1.9809209000     -0.7456525731
 D 1 
   1       0.8055417000     -1.0000000000
 D 1 
   1       0.3531244000     -1.0000000000
 F 2 
   1       1.6755626000      0.6311076882
   2       0.5997536000      0.4968166032
 G 1 
   1       1.0024600000     -1.0000000000
  end;

------------------------------------------------------------------------------
                           ORCA GTO INTEGRAL CALCULATION
                           -- RI-GTO INTEGRALS CHOSEN --
------------------------------------------------------------------------------

                         BASIS SET STATISTICS AND STARTUP INFO

Gaussian basis set:
 # of primitive gaussian shells          ...  150
 # of primitive gaussian functions       ...  258
 # of contracted shells                  ...   84
 # of contracted basis functions         ...  168
 Highest angular momentum                ...    2
 Maximum contraction depth               ...    6
Auxiliary gaussian basis set:
 # of primitive gaussian shells          ...  192
 # of primitive gaussian functions       ...  516
 # of contracted shells                  ...  120
 # of contracted aux-basis functions     ...  360
 Highest angular momentum                ...    4
 Maximum contraction depth               ...    7
Ratio of auxiliary to basis functions    ...  2.14
Integral package used                  ... LIBINT
 One Electron integrals                  ... done
 Ordering auxiliary basis shells         ... done
 Integral threshhold             Thresh  ...  2.500e-11
 Primitive cut-off               TCut    ...  2.500e-12
 Pre-screening matrix                    ... done
 Shell pair data                         ... 
 Ordering of the shell pairs             ... done (   0.001 sec) 3474 of 3570 pairs
 Determination of significant pairs      ... done (   0.000 sec)
 Creation of shell pair data             ... done (   0.001 sec)
 Storage of shell pair data              ... done (   0.025 sec)
 Shell pair data done in (   0.028 sec)
 Computing two index integrals           ... done
 Cholesky decomposition of the V-matrix  ... done


Timings:
 Total evaluation time                   ...   0.432 sec (  0.007 min)
 One electron matrix time                ...   0.043 sec (  0.001 min) =  9.9%
 Schwartz matrix evaluation time         ...   0.156 sec (  0.003 min) = 36.1%
 Two index repulsion integral time       ...   0.020 sec (  0.000 min) =  4.7%
 Cholesky decomposition of V             ...   0.110 sec (  0.002 min) = 25.6%
 Three index repulsion integral time     ...   0.000 sec (  0.000 min) =  0.0%

-------------------------------------------------------------------------------
                                 ORCA SCF
-------------------------------------------------------------------------------

------------
SCF SETTINGS
------------
Hamiltonian:
 Density Functional     Method          .... DFT(GTOs)
 Exchange Functional    Exchange        .... PBE
   PBE kappa parameter   XKappa         ....  0.804000
   PBE mue parameter    XMuePBE         ....  0.219520
 Correlation Functional Correlation     .... PBE
   PBE beta parameter  CBetaPBE         ....  0.066725
 LDA part of GGA corr.  LDAOpt          .... PW91-LDA
 Gradients option       PostSCFGGA      .... off
   Density functional embedding theory  .... OFF
   NL short-range parameter             ....  6.400000
 RI-approximation to the Coulomb term is turned on
   Number of auxiliary basis functions  .... 360


General Settings:
 Integral files         IntName         .... ben
 Hartree-Fock type      HFTyp           .... RHF
 Total Charge           Charge          ....    0
 Multiplicity           Mult            ....    1
 Number of Electrons    NEL             ....   42
 Basis Dimension        Dim             ....  168
 Nuclear Repulsion      ENuc            ....    203.0193512800 Eh

Convergence Acceleration:
 DIIS                   CNVDIIS         .... on
   Start iteration      DIISMaxIt       ....    12
   Startup error        DIISStart       ....  0.200000
   # of expansion vecs  DIISMaxEq       ....     5
   Bias factor          DIISBfac        ....   1.050
   Max. coefficient     DIISMaxC        ....  10.000
 Newton-Raphson         CNVNR           .... off
 SOSCF                  CNVSOSCF        .... on
   Start iteration      SOSCFMaxIt      ....   150
   Startup grad/error   SOSCFStart      ....  0.003300
 Level Shifting         CNVShift        .... on
   Level shift para.    LevelShift      ....    0.2500
   Turn off err/grad.   ShiftErr        ....    0.0010
 Zerner damping         CNVZerner       .... off
 Static damping         CNVDamp         .... on
   Fraction old density DampFac         ....    0.7000
   Max. Damping (<1)    DampMax         ....    0.9800
   Min. Damping (>=0)   DampMin         ....    0.0000
   Turn off err/grad.   DampErr         ....    0.1000
 Fernandez-Rico         CNVRico         .... off

SCF Procedure:
 Maximum # iterations   MaxIter         ....   125
 SCF integral mode      SCFMode         .... Direct
   Integral package                     .... LIBINT
 Reset frequency        DirectResetFreq ....    20
 Integral Threshold     Thresh          ....  2.500e-11 Eh
 Primitive CutOff       TCut            ....  2.500e-12 Eh

Convergence Tolerance:
 Convergence Check Mode ConvCheckMode   .... Total+1el-Energy
 Convergence forced     ConvForced      .... 0
 Energy Change          TolE            ....  1.000e-08 Eh
 1-El. energy change                    ....  1.000e-05 Eh
 Orbital Gradient       TolG            ....  1.000e-05
 Orbital Rotation angle TolX            ....  1.000e-05
 DIIS Error             TolErr          ....  5.000e-07


Diagonalization of the overlap matrix:
Smallest eigenvalue                        ... 4.267e-06
Time for diagonalization                   ...    0.160 sec
Threshold for overlap eigenvalues          ... 1.000e-08
Number of eigenvalues below threshold      ... 0
Time for construction of square roots      ...    0.014 sec
Total time needed                          ...    0.174 sec

-------------------
DFT GRID GENERATION
-------------------

General Integration Accuracy     IntAcc      ...  4.340
Radial Grid Type                 RadialGrid  ... Gauss-Chebyshev
Angular Grid (max. acc.)         AngularGrid ... Lebedev-110
Angular grid pruning method      GridPruning ... 3 (G Style)
Weight generation scheme         WeightScheme... Becke
Basis function cutoff            BFCut       ...    1.0000e-11
Integration weight cutoff        WCut        ...    1.0000e-14
Grids for H and He will be reduced by one unit

# of grid points (after initial pruning)     ...  14700 (   0.0 sec)
# of grid points (after weights+screening)   ...  13762 (   0.1 sec)
nearest neighbour list constructed           ...    0.0 sec
Grid point re-assignment to atoms done       ...    0.0 sec
Grid point division into batches done        ...    0.0 sec
Reduced shell lists constructed in    0.3 sec

Total number of grid points                  ...    13762
Total number of batches                      ...      220
Average number of points per batch           ...       62
Average number of grid points per atom       ...     1147
Average number of shells per batch           ...    66.84 (79.57%)
Average number of basis functions per batch  ...   136.77 (81.41%)
Average number of large shells per batch     ...    55.16 (82.52%)
Average number of large basis fcns per batch ...   114.04 (83.38%)
Maximum spatial batch extension              ...  17.12, 20.35, 27.00 au
Average spatial batch extension              ...   3.70,  4.02,  5.53 au

Time for grid setup =    0.373 sec

------------------------------
INITIAL GUESS: MODEL POTENTIAL
------------------------------
Loading Hartree-Fock densities                     ... done
Calculating cut-offs                               ... done
Setting up the integral package                    ... done
Initializing the effective Hamiltonian             ... done
Starting the Coulomb interaction                   ... done (   0.2 sec)
Reading the grid                                   ... done
Mapping shells                                     ... done
Starting the XC term evaluation                    ... done (   0.5 sec)
  promolecular density results
     # of electrons  =     42.003603288
     EX              =    -32.420047908
     EC              =     -1.367334949
     EX+EC           =    -33.787382857
Transforming the Hamiltonian                       ... done (   0.0 sec)
Diagonalizing the Hamiltonian                      ... done (   0.0 sec)
Back transforming the eigenvectors                 ... done (   0.0 sec)
Now organizing SCF variables                       ... done
                      ------------------
                      INITIAL GUESS DONE (   1.3 sec)
                      ------------------
--------------
SCF ITERATIONS
--------------
               ***  Starting incremental Fock matrix formation  ***

                         ----------------------------
                         !        ITERATION     0   !
                         ----------------------------
   Total Energy        :    -231.867996190535 Eh
   Energy Change       :    -231.867996190535 Eh
   MAX-DP              :       0.038277669649
   RMS-DP              :       0.001344065072
   Actual Damping      :       0.7000
   Actual Level Shift  :       0.2500 Eh
   Int. Num. El.       :    42.00220075 (UP=   21.00110037 DN=   21.00110037)
   Exchange            :   -33.60918988
   Correlation         :    -1.38858739


                         ----------------------------
                         !        ITERATION     1   !
                         ----------------------------
   Total Energy        :    -231.929381175599 Eh
   Energy Change       :      -0.061384985065 Eh
   MAX-DP              :       0.023280007015
   RMS-DP              :       0.001026489105
   Actual Damping      :       0.7000
   Actual Level Shift  :       0.2500 Eh
   Int. Num. El.       :    42.00360430 (UP=   21.00180215 DN=   21.00180215)
   Exchange            :   -33.37597070
   Correlation         :    -1.37979585

                               ***Turning on DIIS***

                         ----------------------------
                         !        ITERATION     2   !
                         ----------------------------
   Total Energy        :    -231.952207952990 Eh
   Energy Change       :      -0.022826777390 Eh
   MAX-DP              :       0.030924258127
   RMS-DP              :       0.001877442905
   Actual Damping      :       0.0000
   Actual Level Shift  :       0.2500 Eh
   Int. Num. El.       :    42.00484619 (UP=   21.00242310 DN=   21.00242310)
   Exchange            :   -33.21550299
   Correlation         :    -1.37347635
   DIIS-Error          :       0.020463031119


                         ----------------------------
                         !        ITERATION     3   !
                         ----------------------------
   Total Energy        :    -231.983039007852 Eh
   Energy Change       :      -0.030831054863 Eh
   MAX-DP              :       0.015026092067
   RMS-DP              :       0.000739278566
   Actual Damping      :       0.0000
   Actual Level Shift  :       0.2500 Eh
   Int. Num. El.       :    42.00710780 (UP=   21.00355390 DN=   21.00355390)
   Exchange            :   -32.98454110
   Correlation         :    -1.36545062
   DIIS-Error          :       0.041034510775
   DIIS coefficients:
      0.63137   0.36863


                         ----------------------------
                         !        ITERATION     4   !
                         ----------------------------
   Total Energy        :    -231.994360526009 Eh
   Energy Change       :      -0.011321518157 Eh
   MAX-DP              :       0.005145954389
   RMS-DP              :       0.000321736288
   Actual Damping      :       0.0000
   Actual Level Shift  :       0.2500 Eh
   Int. Num. El.       :    42.00637782 (UP=   21.00318891 DN=   21.00318891)
   Exchange            :   -33.08827062
   Correlation         :    -1.36991227
   DIIS-Error          :       0.008110963440
   DIIS coefficients:
      0.22892  -0.01531   0.78639

                      *** Initiating the SOSCF procedure ***
                           *** Shutting down DIIS ***
                      *** Re-Reading the Fockian *** 
                      *** Removing any level shift *** 

                         ----------------------------
                         !        ITERATION     5   !
                         ----------------------------
   Total Energy        :    -231.994918178049 Eh
   Energy Change       :      -0.000557652040 Eh
   MAX-DP              :       0.002110902315
   RMS-DP              :       0.000139228275
   Orbital gradient    :       0.000960537062
   Orbital Rotation    :       0.000960537062
   Actual Damping      :       0.0000
   Int. Num. El.       :    42.00609339 (UP=   21.00304669 DN=   21.00304669)
   Exchange            :   -33.11171147
   Correlation         :    -1.37096090

               *** Restarting incremental Fock matrix formation ***

                         ----------------------------
                         !        ITERATION     6   !
                         ----------------------------
   Total Energy        :    -231.994960115782 Eh
   Energy Change       :      -0.000041937733 Eh
   MAX-DP              :       0.001743193929
   RMS-DP              :       0.000110183063
   Orbital gradient    :       0.000423968093
   Orbital Rotation    :       0.001370079402
   Actual Damping      :       0.0000
   Int. Num. El.       :    42.00599313 (UP=   21.00299656 DN=   21.00299656)
   Exchange            :   -33.11774858
   Correlation         :    -1.37130240


                         ----------------------------
                         !        ITERATION     7   !
                         ----------------------------
   Total Energy        :    -231.994962350018 Eh
   Energy Change       :      -0.000002234236 Eh
   MAX-DP              :       0.000365205028
   RMS-DP              :       0.000018192786
   Orbital gradient    :       0.000312026817
   Orbital Rotation    :       0.000225018471
   Actual Damping      :       0.0000
   Int. Num. El.       :    42.00591608 (UP=   21.00295804 DN=   21.00295804)
   Exchange            :   -33.12201448
   Correlation         :    -1.37156108


                         ----------------------------
                         !        ITERATION     8   !
                         ----------------------------
   Total Energy        :    -231.994964866927 Eh
   Energy Change       :      -0.000002516909 Eh
   MAX-DP              :       0.000307252347
   RMS-DP              :       0.000020647426
   Orbital gradient    :       0.000109057994
   Orbital Rotation    :       0.000151160383
   Actual Damping      :       0.0000
   Int. Num. El.       :    42.00592640 (UP=   21.00296320 DN=   21.00296320)
   Exchange            :   -33.11985814
   Correlation         :    -1.37147452


                         ----------------------------
                         !        ITERATION     9   !
                         ----------------------------
   Total Energy        :    -231.994965086170 Eh
   Energy Change       :      -0.000000219243 Eh
   MAX-DP              :       0.000059214930
   RMS-DP              :       0.000004078568
   Orbital gradient    :       0.000048518647
   Orbital Rotation    :       0.000036984029
   Actual Damping      :       0.0000
   Int. Num. El.       :    42.00593673 (UP=   21.00296836 DN=   21.00296836)
   Exchange            :   -33.11970497
   Correlation         :    -1.37146439


                         ----------------------------
                         !        ITERATION    10   !
                         ----------------------------
   Total Energy        :    -231.994965146621 Eh
   Energy Change       :      -0.000000060451 Eh
   MAX-DP              :       0.000027746612
   RMS-DP              :       0.000001483759
   Orbital gradient    :       0.000004986340
   Orbital Rotation    :       0.000010277736
   Actual Damping      :       0.0000
   Int. Num. El.       :    42.00593348 (UP=   21.00296674 DN=   21.00296674)
   Exchange            :   -33.11992673
   Correlation         :    -1.37147043


                         ----------------------------
                         !        ITERATION    11   !
                         ----------------------------
   Total Energy        :    -231.994965151162 Eh
   Energy Change       :      -0.000000004541 Eh
   MAX-DP              :       0.000008899780
   RMS-DP              :       0.000000317096
   Orbital gradient    :       0.000005307942
   Orbital Rotation    :       0.000010141345
   Actual Damping      :       0.0000
   Int. Num. El.       :    42.00593308 (UP=   21.00296654 DN=   21.00296654)
   Exchange            :   -33.11990184
   Correlation         :    -1.37147094


                         ----------------------------
                         !        ITERATION    12   !
                         ----------------------------
   Total Energy        :    -231.994965153924 Eh
   Energy Change       :      -0.000000002762 Eh
   MAX-DP              :       0.000012291138
   RMS-DP              :       0.000000550460
   Orbital gradient    :       0.000003215634
   Orbital Rotation    :       0.000004951984
   Actual Damping      :       0.0000
   Int. Num. El.       :    42.00593315 (UP=   21.00296657 DN=   21.00296657)
   Exchange            :   -33.11989473
   Correlation         :    -1.37147077

                 **** Energy Check signals convergence ****
              ***Rediagonalizing the Fockian in SOSCF/NRSCF***

               *****************************************************
               *                     SUCCESS                       *
               *           SCF CONVERGED AFTER  13 CYCLES          *
               *****************************************************

Setting up the final grid:

General Integration Accuracy     IntAcc      ...  4.670
Radial Grid Type                 RadialGrid  ... Gauss-Chebyshev
Angular Grid (max. acc.)         AngularGrid ... Lebedev-302
Angular grid pruning method      GridPruning ... 3 (G Style)
Weight generation scheme         WeightScheme... Becke
Basis function cutoff            BFCut       ...    1.0000e-11
Integration weight cutoff        WCut        ...    1.0000e-14
Grids for H and He will be reduced by one unit

# of grid points (after initial pruning)     ...  57636 (   0.0 sec)
# of grid points (after weights+screening)   ...  53408 (   0.2 sec)
nearest neighbour list constructed           ...    0.0 sec
Grid point re-assignment to atoms done       ...    0.0 sec
Grid point division into batches done        ...    0.3 sec
Reduced shell lists constructed in    0.8 sec

Total number of grid points                  ...    53408
Total number of batches                      ...      842
Average number of points per batch           ...       63
Average number of grid points per atom       ...     4451
Average number of shells per batch           ...    61.73 (73.48%)
Average number of basis functions per batch  ...   126.39 (75.23%)
Average number of large shells per batch     ...    50.19 (81.31%)
Average number of large basis fcns per batch ...   103.10 (81.58%)
Maximum spatial batch extension              ...  16.78, 16.05, 23.20 au
Average spatial batch extension              ...   2.58,  2.66,  3.04 au

Final grid set up in    1.1 sec
Final integration                            ... done (   1.2 sec)
Change in XC energy                          ...     0.000205292
Integrated number of electrons               ...    41.999907925
Previous integrated no of electrons          ...    42.005933306

----------------
TOTAL SCF ENERGY
----------------

Total Energy       :         -231.99475986 Eh           -6312.89836 eV

Components:
Nuclear Repulsion  :          203.01935128 Eh            5524.43741 eV
Electronic Energy  :         -435.01411114 Eh          -11837.33576 eV
One Electron Energy:         -713.33133953 Eh          -19410.73257 eV
Two Electron Energy:          278.31722840 Eh            7573.39681 eV

Virial components:
Potential Energy   :         -463.14302092 Eh          -12602.76231 eV
Kinetic Energy     :          231.14826106 Eh            6289.86395 eV
Virial Ratio       :            2.00366215


DFT components:
N(Alpha)           :       20.999953962426 electrons
N(Beta)            :       20.999953962426 electrons
N(Total)           :       41.999907924853 electrons
E(X)               :      -33.119620768400 Eh       
E(C)               :       -1.371546153403 Eh       
E(XC)              :      -34.491166921803 Eh       
DFET-embed. en.    :        0.000000000000 Eh       

---------------
SCF CONVERGENCE
---------------

  Last Energy change         ...    3.8530e-09  Tolerance :   1.0000e-08
  Last MAX-Density change    ...    6.9166e-06  Tolerance :   1.0000e-07
  Last RMS-Density change    ...    3.0457e-07  Tolerance :   5.0000e-09
  Last Orbital Gradient      ...    1.3440e-06  Tolerance :   1.0000e-05
  Last Orbital Rotation      ...    4.7979e-06  Tolerance :   1.0000e-05

             **** THE GBW FILE WAS UPDATED (ben.gbw) ****
             **** DENSITY FILE WAS UPDATED (ben.scfp) ****
             **** ENERGY FILE WAS UPDATED (ben.en.tmp) ****
             **** THE GBW FILE WAS UPDATED (ben.gbw) ****
             **** DENSITY FILE WAS UPDATED (ben.scfp) ****
----------------
ORBITAL ENERGIES
----------------

  NO   OCC          E(Eh)            E(eV) 
   0   2.0000      -9.888668      -269.0843 
   1   2.0000      -9.888568      -269.0816 
   2   2.0000      -9.888472      -269.0790 
   3   2.0000      -9.888204      -269.0717 
   4   2.0000      -9.888120      -269.0694 
   5   2.0000      -9.887994      -269.0660 
   6   2.0000      -0.780015       -21.2253 
   7   2.0000      -0.678564       -18.4647 
   8   2.0000      -0.678487       -18.4626 
   9   2.0000      -0.546320       -14.8661 
  10   2.0000      -0.546222       -14.8635 
  11   2.0000      -0.475222       -12.9314 
  12   2.0000      -0.414186       -11.2706 
  13   2.0000      -0.400888       -10.9087 
  14   2.0000      -0.377537       -10.2733 
  15   2.0000      -0.377359       -10.2685 
  16   2.0000      -0.331832        -9.0296 
  17   2.0000      -0.304264        -8.2794 
  18   2.0000      -0.304226        -8.2784 
  19   2.0000      -0.232364        -6.3229 
  20   2.0000      -0.232346        -6.3224 
  21   0.0000      -0.045675        -1.2429 
  22   0.0000      -0.045281        -1.2322 
  23   0.0000      -0.006955        -0.1893 
  24   0.0000       0.013959         0.3798 
  25   0.0000       0.015657         0.4261 
  26   0.0000       0.036789         1.0011 
  27   0.0000       0.037522         1.0210 
  28   0.0000       0.049433         1.3451 
  29   0.0000       0.055710         1.5159 
  30   0.0000       0.072374         1.9694 
  31   0.0000       0.076982         2.0948 
  32   0.0000       0.079569         2.1652 
  33   0.0000       0.089353         2.4314 
  34   0.0000       0.090239         2.4555 
  35   0.0000       0.128122         3.4864 
  36   0.0000       0.128378         3.4933 
  37   0.0000       0.129245         3.5169 
  38   0.0000       0.131902         3.5892 
  39   0.0000       0.133030         3.6199 
  40   0.0000       0.136111         3.7038 
  41   0.0000       0.153497         4.1769 
  42   0.0000       0.177593         4.8326 
  43   0.0000       0.178550         4.8586 
  44   0.0000       0.184083         5.0092 
  45   0.0000       0.192205         5.2302 
  46   0.0000       0.193962         5.2780 
  47   0.0000       0.198405         5.3989 
  48   0.0000       0.199963         5.4413 
  49   0.0000       0.209225         5.6933 
  50   0.0000       0.213978         5.8226 
  51   0.0000       0.214064         5.8250 
  52   0.0000       0.264188         7.1889 
  53   0.0000       0.266836         7.2610 
  54   0.0000       0.288717         7.8564 
  55   0.0000       0.290586         7.9073 
  56   0.0000       0.290736         7.9113 
  57   0.0000       0.291589         7.9345 
  58   0.0000       0.379569        10.3286 
  59   0.0000       0.424366        11.5476 
  60   0.0000       0.465955        12.6793 
  61   0.0000       0.489730        13.3262 
  62   0.0000       0.490687        13.3523 
  63   0.0000       0.498578        13.5670 
  64   0.0000       0.501732        13.6528 
  65   0.0000       0.513061        13.9611 
  66   0.0000       0.514290        13.9945 
  67   0.0000       0.542329        14.7575 
  68   0.0000       0.543499        14.7894 
  69   0.0000       0.566285        15.4094 
  70   0.0000       0.580283        15.7903 
  71   0.0000       0.582707        15.8563 
  72   0.0000       0.632289        17.2055 
  73   0.0000       0.649041        17.6613 
  74   0.0000       0.650948        17.7132 
  75   0.0000       0.682179        18.5630 
  76   0.0000       0.683526        18.5997 
  77   0.0000       0.686383        18.6774 
  78   0.0000       0.742981        20.2175 
  79   0.0000       0.787812        21.4374 
  80   0.0000       0.788251        21.4494 
  81   0.0000       0.789248        21.4765 
  82   0.0000       0.789827        21.4923 
  83   0.0000       0.812522        22.1099 
  84   0.0000       0.814354        22.1597 
  85   0.0000       0.815493        22.1907 
  86   0.0000       0.826109        22.4796 
  87   0.0000       0.881016        23.9737 
  88   0.0000       0.949071        25.8255 
  89   0.0000       0.975868        26.5547 
  90   0.0000       0.978795        26.6344 
  91   0.0000       1.016459        27.6592 
  92   0.0000       1.016535        27.6613 
  93   0.0000       1.074214        29.2308 
  94   0.0000       1.074322        29.2338 
  95   0.0000       1.223288        33.2874 
  96   0.0000       1.261252        34.3204 
  97   0.0000       1.395854        37.9831 
  98   0.0000       1.430193        38.9175 
  99   0.0000       1.430592        38.9284 
 100   0.0000       1.436251        39.0824 
 101   0.0000       1.502240        40.8780 
 102   0.0000       1.502996        40.8986 
 103   0.0000       1.503249        40.9055 
 104   0.0000       1.575392        42.8686 
 105   0.0000       1.576328        42.8941 
 106   0.0000       1.595522        43.4164 
 107   0.0000       1.596424        43.4409 
 108   0.0000       1.653336        44.9896 
 109   0.0000       1.708588        46.4930 
 110   0.0000       1.708782        46.4983 
 111   0.0000       1.736717        47.2585 
 112   0.0000       1.736846        47.2620 
 113   0.0000       1.782640        48.5081 
 114   0.0000       1.846624        50.2492 
 115   0.0000       1.847412        50.2706 
 116   0.0000       1.872718        50.9592 
 117   0.0000       1.874935        51.0196 
 118   0.0000       1.898713        51.6666 
 119   0.0000       1.905478        51.8507 
 120   0.0000       1.941965        52.8435 
 121   0.0000       1.942709        52.8638 
 122   0.0000       2.007276        54.6207 
 123   0.0000       2.007670        54.6315 
 124   0.0000       2.245220        61.0955 
 125   0.0000       2.255317        61.3703 
 126   0.0000       2.297683        62.5231 
 127   0.0000       2.322934        63.2102 
 128   0.0000       2.323016        63.2125 
 129   0.0000       2.325027        63.2672 
 130   0.0000       2.325934        63.2919 
 131   0.0000       2.540058        69.1185 
 132   0.0000       2.540252        69.1238 
 133   0.0000       2.572211        69.9934 
 134   0.0000       2.572270        69.9950 
 135   0.0000       2.592630        70.5490 
 136   0.0000       2.644619        71.9637 
 137   0.0000       2.645027        71.9748 
 138   0.0000       2.679302        72.9075 
 139   0.0000       2.679820        72.9216 
 140   0.0000       2.695008        73.3349 
 141   0.0000       2.712629        73.8144 
 142   0.0000       2.712903        73.8218 
 143   0.0000       2.806009        76.3554 
 144   0.0000       2.806609        76.3717 
 145   0.0000       2.827765        76.9474 
 146   0.0000       2.840900        77.3048 
 147   0.0000       2.841600        77.3239 
 148   0.0000       2.989451        81.3471 
 149   0.0000       3.010155        81.9105 
 150   0.0000       3.246913        88.3530 
 151   0.0000       3.247438        88.3673 
 152   0.0000       3.391023        92.2744 
 153   0.0000       3.391741        92.2940 
 154   0.0000       3.408775        92.7575 
 155   0.0000       3.580306        97.4251 
 156   0.0000       3.898726       106.0897 
 157   0.0000       3.899159       106.1015 
 158   0.0000       3.991677       108.6191 
 159   0.0000       4.058567       110.4392 
 160   0.0000       4.059368       110.4610 
 161   0.0000       4.738284       128.9353 
 162   0.0000      23.336957       635.0309 
 163   0.0000      23.701781       644.9582 
 164   0.0000      23.701942       644.9626 
 165   0.0000      23.824698       648.3030 
 166   0.0000      23.824872       648.3077 
 167   0.0000      23.931832       651.2183 
------------------
MOLECULAR ORBITALS
------------------
                      0         1         2         3         4         5   
                  -9.88867  -9.88857  -9.88847  -9.88820  -9.88812  -9.88799
                   2.00000   2.00000   2.00000   2.00000   2.00000   2.00000
                  --------  --------  --------  --------  --------  --------
  0C   1s        -0.200667  0.103376  0.286056  0.148020 -0.311797  0.255690
  0C   2s        -0.164870  0.084823  0.234683  0.121405 -0.255657  0.209559
  0C   1pz       -0.000000  0.000000 -0.000000 -0.000000 -0.000000 -0.000000
  0C   1px       -0.000133 -0.000662  0.000363  0.000445  0.000354 -0.000223
  0C   1py        0.000360 -0.000500  0.000133  0.000381 -0.000119  0.000198
  0C   3s        -0.007236  0.004170  0.011622  0.005833 -0.012446  0.011035
  0C   2pz        0.000000 -0.000000  0.000000  0.000000 -0.000000  0.000000
  0C   2px        0.000910  0.003188 -0.001574 -0.001712 -0.001330  0.000757
  0C   2py       -0.002011  0.002202 -0.000825 -0.001353  0.000454 -0.000503
  0C   4s         0.003337  0.000448 -0.004599 -0.003904  0.008178 -0.028753
  0C   3pz       -0.000000  0.000000 -0.000000 -0.000000 -0.000000  0.000000
  0C   3px       -0.000385 -0.000419  0.000143 -0.000438  0.002730 -0.009555
  0C   3py        0.000786 -0.001681  0.000842  0.001954 -0.003658  0.014399
  0C   5s         0.001786  0.005916  0.008728  0.005610 -0.015482 -0.022805
  0C   4pz        0.000000 -0.000000  0.000000  0.000000 -0.000000 -0.000000
  0C   4px       -0.000668  0.002574  0.000812 -0.000562 -0.002251 -0.002582
  0C   4py        0.000633 -0.000345 -0.002880 -0.001919  0.002334  0.004278
  0C   1dz2       0.000189 -0.000168 -0.000655 -0.000659  0.001591 -0.001432
  0C   1dxz      -0.000000 -0.000000  0.000000  0.000000 -0.000000  0.000000
  0C   1dyz       0.000000 -0.000000  0.000000  0.000000  0.000000  0.000000
  0C   1dx2y2     0.000292  0.001817 -0.000976 -0.001025 -0.000597  0.000314
  0C   1dxy       0.001110 -0.000949  0.000101  0.000506 -0.000234  0.000249
  1C   1s        -0.208579 -0.169466  0.273959  0.231477  0.243025 -0.239515
  1C   2s        -0.171353 -0.139053  0.224740  0.189831  0.199239 -0.196288
  1C   1pz       -0.000000 -0.000000 -0.000000 -0.000000  0.000000  0.000000
  1C   1px        0.000102 -0.000621 -0.000494 -0.000362  0.000476 -0.000224
  1C   1py        0.000346  0.000410  0.000190  0.000366  0.000068 -0.000220
  1C   3s        -0.007552 -0.006815  0.011188  0.009160  0.009769 -0.010373
  1C   2pz        0.000000  0.000000  0.000000  0.000000 -0.000000 -0.000000
  1C   2px       -0.000751  0.002985  0.002243  0.001393 -0.001810  0.000804
  1C   2py       -0.001990 -0.001759 -0.001037 -0.001308 -0.000320  0.000549
  1C   4s         0.003706  0.000844 -0.006502 -0.005719 -0.006504  0.028452
  1C   3pz       -0.000000 -0.000000 -0.000000 -0.000000  0.000000 -0.000000
  1C   3px        0.000205 -0.000590  0.000184  0.000779  0.002161 -0.007916
  1C   3py        0.000568  0.001346  0.002160  0.002861  0.003210 -0.015308
  1C   5s         0.001342 -0.007312  0.005654  0.010567  0.013040  0.023171
  1C   4pz        0.000000  0.000000 -0.000000 -0.000000  0.000000  0.000000
  1C   4px        0.000587  0.002576  0.000179  0.000102 -0.002090 -0.002109
  1C   4py        0.000771  0.001207 -0.002421 -0.002632 -0.001839 -0.004686
  1C   1dz2       0.000253  0.000317 -0.000694 -0.001096 -0.001305  0.001401
  1C   1dxz       0.000000  0.000000 -0.000000 -0.000000 -0.000000  0.000000
  1C   1dyz       0.000000  0.000000 -0.000000  0.000000  0.000000 -0.000000
  1C   1dx2y2     0.000556 -0.001324 -0.001192 -0.000660  0.000900 -0.000422
  1C   1dxy      -0.000957 -0.001280 -0.000580 -0.000729  0.000079  0.000156
  2C   1s        -0.263004 -0.351584 -0.039135 -0.288279  0.040331  0.195552
  2C   2s        -0.215976 -0.288416 -0.032096 -0.236317  0.033051  0.160223
  2C   1pz        0.000000  0.000000 -0.000000 -0.000000  0.000000  0.000000
  2C   1px        0.000296  0.000059 -0.000056 -0.000374  0.000034  0.000307
  2C   1py        0.000006 -0.000084  0.000904  0.000084  0.000628  0.000045
  2C   3s        -0.009724 -0.014362 -0.001625 -0.011640  0.001655  0.008581
  2C   2pz       -0.000000 -0.000000  0.000000 -0.000000 -0.000000  0.000000
  2C   2px       -0.001886 -0.000122  0.000261  0.001547 -0.000168 -0.000867
  2C   2py       -0.000066  0.000408 -0.004235 -0.000307 -0.002354 -0.000186
  2C   4s         0.005068  0.009471  0.001850  0.007739 -0.001240 -0.027577
  2C   3pz        0.000000  0.000000 -0.000000 -0.000000 -0.000000 -0.000000
  2C   3px       -0.000185 -0.003319 -0.000986 -0.004767  0.000797  0.017002
  2C   3py       -0.000023 -0.000320  0.001340 -0.000136  0.000799  0.000988
  2C   5s        -0.001648 -0.005812  0.000357 -0.016544  0.002501 -0.024270
  2C   4pz       -0.000000 -0.000000  0.000000  0.000000 -0.000000  0.000000
  2C   4px        0.001550  0.002299  0.000132  0.003204 -0.000356  0.005515
  2C   4py        0.000115  0.000338 -0.002148 -0.000095 -0.001654  0.000235
  2C   1dz2       0.000543  0.000931  0.000129  0.001609 -0.000250 -0.001295
  2C   1dxz       0.000000 -0.000000 -0.000000  0.000000  0.000000  0.000000
  2C   1dyz      -0.000000  0.000000  0.000000  0.000000 -0.000000  0.000000
  2C   1dx2y2    -0.000995 -0.000265 -0.000259  0.000638 -0.000270 -0.000425
  2C   1dxy      -0.000131 -0.000250  0.002225  0.000278  0.001208  0.000026
  3H   1s         0.000179 -0.000025  0.000112  0.000166  0.000243 -0.000377
  3H   2s         0.002537  0.001355 -0.002558 -0.002217 -0.002232  0.003975
  3H   3s        -0.003145 -0.001316  0.001174  0.000483 -0.000082  0.002911
  3H   1pz       -0.000000  0.000000  0.000000  0.000000 -0.000000  0.000000
  3H   1px       -0.000708 -0.000298  0.000694  0.000518  0.000387 -0.000450
  3H   1py       -0.001415 -0.000842  0.001191  0.000896  0.000869 -0.000925
  4C   1s        -0.279326  0.340456  0.042475 -0.289715  0.038327 -0.190120
  4C   2s        -0.229365  0.279275  0.034836 -0.237491  0.031408 -0.155770
  4C   1pz        0.000000 -0.000000 -0.000000  0.000000  0.000000  0.000000
  4C   1px       -0.000299  0.000043 -0.000057  0.000380 -0.000032  0.000299
  4C   1py        0.000003 -0.000086  0.000910 -0.000076 -0.000619  0.000051
  4C   3s        -0.010391  0.013956  0.001755 -0.011711  0.001569 -0.008362
  4C   2pz       -0.000000  0.000000  0.000000  0.000000 -0.000000  0.000000
  4C   2px        0.001891 -0.000021  0.000262 -0.001562  0.000165 -0.000836
  4C   2py        0.000025  0.000416 -0.004258  0.000271  0.002315 -0.000207
  4C   4s         0.005497 -0.009270 -0.001931  0.008218 -0.001049  0.027427
  4C   3pz        0.000000 -0.000000  0.000000  0.000000  0.000000 -0.000000
  4C   3px        0.000333 -0.003339 -0.001020  0.005079 -0.000686  0.016909
  4C   3py        0.000045 -0.000322  0.001346  0.000165 -0.000780  0.000991
  4C   5s        -0.001936  0.005833 -0.000239 -0.016022  0.002636  0.024580
  4C   4pz       -0.000000  0.000000 -0.000000 -0.000000  0.000000  0.000000
  4C   4px       -0.001660  0.002242  0.000162 -0.003078  0.000385  0.005576
  4C   4py       -0.000142  0.000337 -0.002163  0.000084  0.001636  0.000222
  4C   1dz2       0.000586 -0.000915 -0.000143  0.001628 -0.000240  0.001264
  4C   1dxz       0.000000 -0.000000  0.000000 -0.000000  0.000000  0.000000
  4C   1dyz      -0.000000 -0.000000 -0.000000  0.000000 -0.000000  0.000000
  4C   1dx2y2    -0.001005  0.000212  0.000261  0.000650 -0.000266  0.000413
  4C   1dxy      -0.000154  0.000245 -0.002237  0.000261  0.001187 -0.000039
  5H   1s         0.000192  0.000013  0.000091  0.000090 -0.000273  0.000382
  5H   2s         0.002453 -0.000726 -0.002504 -0.001473  0.002930 -0.004119
  5H   3s        -0.003196  0.000891  0.001595  0.000416 -0.000215 -0.002821
  5H   1pz        0.000000 -0.000000  0.000000 -0.000000  0.000000 -0.000000
  5H   1px        0.000844 -0.000181 -0.000843 -0.000440  0.000687 -0.000599
  5H   1py       -0.001310  0.000512  0.001183  0.000547 -0.001100  0.000938
  6C   1s        -0.217920  0.158598 -0.276876  0.234994  0.241630  0.233190
  6C   2s        -0.179016  0.130125 -0.227131  0.192713  0.198093  0.191101
  6C   1pz        0.000000  0.000000 -0.000000  0.000000  0.000000  0.000000
  6C   1px       -0.000074 -0.000629 -0.000492  0.000349 -0.000480 -0.000228
  6C   1py       -0.000364  0.000395  0.000196 -0.000366 -0.000069 -0.000212
  6C   3s        -0.007929  0.006419 -0.011309  0.009315  0.009716  0.010121
  6C   2pz        0.000000 -0.000000  0.000000 -0.000000 -0.000000 -0.000000
  6C   2px        0.000617  0.003032  0.002235 -0.001340  0.001825  0.000820
  6C   2py        0.002066 -0.001668 -0.001060  0.001300  0.000320  0.000522
  6C   4s         0.003786 -0.000649  0.006589 -0.006240 -0.006627 -0.028288
  6C   3pz       -0.000000  0.000000 -0.000000  0.000000 -0.000000  0.000000
  6C   3px       -0.000172 -0.000601  0.000210 -0.000940 -0.002208 -0.007885
  6C   3py       -0.000615  0.001326  0.002215 -0.003141 -0.003293 -0.015227
  6C   5s         0.000968  0.007347 -0.005856  0.010098  0.012818 -0.023462
  6C   4pz        0.000000 -0.000000  0.000000 -0.000000 -0.000000 -0.000000
  6C   4px       -0.000709  0.002552  0.000166 -0.000128  0.002069 -0.002120
  6C   4py       -0.000838  0.001158 -0.002453  0.002526  0.001783 -0.004751
  6C   1dz2       0.000271 -0.000302  0.000713 -0.001120 -0.001306 -0.001370
  6C   1dxz      -0.000000  0.000000 -0.000000 -0.000000  0.000000 -0.000000
  6C   1dyz      -0.000000  0.000000 -0.000000  0.000000  0.000000 -0.000000
  6C   1dx2y2     0.000498  0.001356  0.001187 -0.000633  0.000909  0.000429
  6C   1dxy      -0.001014  0.001237  0.000590 -0.000720  0.000079 -0.000142
  7H   1s         0.000121  0.000161  0.000029 -0.000321  0.000053 -0.000356
  7H   2s         0.003190 -0.003249 -0.000468  0.002641 -0.000325  0.003528
  7H   3s        -0.003224  0.001190  0.000022  0.000383 -0.000131  0.003126
  7H   1pz        0.000000  0.000000 -0.000000  0.000000 -0.000000 -0.000000
  7H   1px        0.001879 -0.001683 -0.000198  0.001074 -0.000124  0.000785
  7H   1py        0.000102 -0.000079 -0.000153  0.000071  0.000066  0.000038
  8C   1s        -0.196742 -0.114800 -0.283515  0.139920 -0.315555 -0.256646
  8C   2s        -0.161649 -0.094206 -0.232598  0.114764 -0.258738 -0.210344
  8C   1pz       -0.000000 -0.000000 -0.000000  0.000000  0.000000  0.000000
  8C   1px        0.000167 -0.000653  0.000369 -0.000451 -0.000350 -0.000212
  8C   1py       -0.000336 -0.000514  0.000136 -0.000378  0.000123  0.000205
  8C   3s        -0.007079 -0.004588 -0.011524  0.005491 -0.012603 -0.011072
  8C   2pz        0.000000  0.000000  0.000000 -0.000000 -0.000000  0.000000
  8C   2px       -0.001070  0.003135 -0.001594  0.001733  0.001311  0.000713
  8C   2py        0.001899  0.002286 -0.000842  0.001350 -0.000472 -0.000526
  8C   4s         0.003364 -0.000239  0.004539 -0.003293  0.008403  0.028774
  8C   3pz       -0.000000 -0.000000  0.000000  0.000000  0.000000  0.000000
  8C   3px        0.000409 -0.000411  0.000162  0.000246 -0.002788 -0.009544
  8C   3py       -0.000706 -0.001694  0.000828 -0.001668  0.003763  0.014411
  8C   5s         0.002020 -0.005909 -0.008650  0.005961 -0.015393  0.022789
  8C   4pz       -0.000000  0.000000 -0.000000 -0.000000  0.000000  0.000000
  8C   4px        0.000549  0.002608  0.000785  0.000533  0.002233 -0.002606
  8C   4py       -0.000631 -0.000395 -0.002872  0.001979 -0.002330  0.004254
  8C   1dz2       0.000183  0.000186  0.000646 -0.000624  0.001605  0.001434
  8C   1dxz      -0.000000  0.000000 -0.000000 -0.000000 -0.000000  0.000000
  8C   1dyz       0.000000 -0.000000 -0.000000  0.000000  0.000000  0.000000
  8C   1dx2y2     0.000384 -0.001796  0.000988 -0.001034 -0.000585 -0.000290
  8C   1dxy       0.001063  0.000997 -0.000108  0.000506 -0.000240 -0.000257
  9H   1s         0.000128 -0.000153 -0.000027 -0.000315  0.000056  0.000362
  9H   2s         0.003034  0.003381  0.000434  0.002594 -0.000354 -0.003577
  9H   3s        -0.003161 -0.001346 -0.000007  0.000313 -0.000147 -0.003133
  9H   1pz        0.000000 -0.000000  0.000000 -0.000000  0.000000  0.000000
  9H   1px       -0.001797 -0.001764 -0.000181 -0.001070  0.000133  0.000805
  9H   1py       -0.000098 -0.000084 -0.000151 -0.000072 -0.000067  0.000040
 10H   1s         0.000177  0.000034 -0.000116  0.000172  0.000244  0.000372
 10H   2s         0.002613 -0.001225  0.002582 -0.002283 -0.002231 -0.003915
 10H   3s        -0.003208  0.001161 -0.001161  0.000423 -0.000115 -0.002920
 10H   1pz        0.000000  0.000000  0.000000 -0.000000  0.000000 -0.000000
 10H   1px        0.000725 -0.000262  0.000698 -0.000523 -0.000383 -0.000437
 10H   1py        0.001460 -0.000771  0.001199 -0.000909 -0.000862 -0.000901
 11H   1s         0.000192 -0.000006 -0.000091  0.000081 -0.000276 -0.000382
 11H   2s         0.002426  0.000861  0.002477 -0.001365  0.002975  0.004130
 11H   3s        -0.003158 -0.001047 -0.001581  0.000454 -0.000207  0.002813
 11H   1pz        0.000000  0.000000  0.000000  0.000000 -0.000000 -0.000000
 11H   1px       -0.000838 -0.000227 -0.000837  0.000420 -0.000697 -0.000603
 11H   1py        0.001289  0.000581  0.001171 -0.000515  0.001115  0.000942
                      6         7         8         9        10        11   
                  -0.78001  -0.67856  -0.67849  -0.54632  -0.54622  -0.47522
                   2.00000   2.00000   2.00000   2.00000   2.00000   2.00000
                  --------  --------  --------  --------  --------  --------
  0C   1s         0.051906 -0.021023 -0.069635 -0.003840 -0.057318  0.005841
  0C   2s         0.079269 -0.032291 -0.106970 -0.005949 -0.089046  0.008922
  0C   1pz       -0.000000  0.000000  0.000000 -0.000000  0.000000 -0.000000
  0C   1px       -0.015623 -0.039128  0.017952 -0.079797 -0.011054  0.049963
  0C   1py        0.023897 -0.029255 -0.000565 -0.049633  0.028455 -0.076620
  0C   3s        -0.203413  0.084883  0.281254  0.015914  0.240157 -0.024055
  0C   2pz        0.000000  0.000000  0.000000 -0.000000  0.000000  0.000000
  0C   2px       -0.023137 -0.057575  0.026863 -0.112248 -0.015627  0.069855
  0C   2py        0.035430 -0.043497 -0.001114 -0.070092  0.040177 -0.107528
  0C   4s        -0.099519  0.047843  0.153494  0.010326  0.164357 -0.037597
  0C   3pz       -0.000000  0.000000 -0.000000 -0.000000  0.000000 -0.000000
  0C   3px       -0.005388 -0.018881  0.008049 -0.044026 -0.004791  0.036716
  0C   3py        0.008693 -0.014519  0.000336 -0.027136  0.012946 -0.055485
  0C   5s        -0.000005  0.008956  0.011793 -0.006043 -0.145702  0.001631
  0C   4pz       -0.000000 -0.000000  0.000000  0.000000 -0.000000  0.000000
  0C   4px        0.002857  0.011775 -0.010068 -0.011517 -0.028678 -0.001745
  0C   4py       -0.006149  0.014075  0.013365 -0.003466  0.034128 -0.005432
  0C   1dz2       0.008896 -0.002305 -0.007784 -0.000230 -0.004133 -0.001748
  0C   1dxz      -0.000000 -0.000000  0.000000  0.000000  0.000000 -0.000000
  0C   1dyz      -0.000000  0.000000 -0.000000 -0.000000 -0.000000 -0.000000
  0C   1dx2y2    -0.000118 -0.009549  0.005063 -0.006970  0.001207 -0.003468
  0C   1dxy      -0.000328  0.005825  0.003233  0.003197  0.001601 -0.007856
  1C   1s         0.051919  0.049791 -0.053048  0.051557  0.025315  0.005853
  1C   2s         0.079289  0.076481 -0.081491  0.080102  0.039322  0.008946
  1C   1pz        0.000000  0.000000  0.000000  0.000000  0.000000 -0.000000
  1C   1px        0.012866 -0.029811 -0.034634  0.024935 -0.081448 -0.041153
  1C   1py        0.025450  0.023300  0.008735 -0.042696  0.026305 -0.081736
  1C   3s        -0.203429 -0.201069  0.214346 -0.216142 -0.106077 -0.024382
  1C   2pz       -0.000000  0.000000  0.000000  0.000000  0.000000 -0.000000
  1C   2px        0.019087 -0.043905 -0.051363  0.034998 -0.114762 -0.057825
  1C   2py        0.037871  0.034793  0.012760 -0.060230  0.037060 -0.114810
  1C   4s        -0.101001 -0.111314  0.113983 -0.146626 -0.071327 -0.037055
  1C   3pz        0.000000 -0.000000  0.000000  0.000000 -0.000000  0.000000
  1C   3px        0.005044 -0.014565 -0.016442  0.016207 -0.045276 -0.029856
  1C   3py        0.009769  0.011529  0.006929 -0.022907  0.016105 -0.060212
  1C   5s         0.004050  0.000274 -0.007800  0.133355  0.061904  0.004618
  1C   4pz       -0.000000 -0.000000 -0.000000 -0.000000  0.000000 -0.000000
  1C   4px       -0.002583  0.009221  0.019535 -0.022826 -0.018443  0.001784
  1C   4py       -0.006044 -0.018755  0.006579 -0.034078 -0.013008 -0.002115
  1C   1dz2       0.008947  0.005565 -0.005964  0.003761  0.001781 -0.001819
  1C   1dxz      -0.000000  0.000000 -0.000000  0.000000 -0.000000 -0.000000
  1C   1dyz      -0.000000  0.000000  0.000000 -0.000000  0.000000  0.000000
  1C   1dx2y2    -0.000189  0.004661  0.008624 -0.003705  0.005024 -0.005125
  1C   1dxy       0.000237  0.007847  0.001683 -0.000592  0.004783  0.006902
  2C   1s         0.051919  0.070821  0.016604 -0.047690  0.031979  0.005724
  2C   2s         0.079292  0.108787  0.025507 -0.074066  0.049674  0.008732
  2C   1pz       -0.000000 -0.000000 -0.000000  0.000000  0.000000 -0.000000
  2C   1px        0.028442  0.010992 -0.000344  0.027948 -0.012414 -0.091427
  2C   1py        0.001580 -0.011012  0.049653 -0.051001 -0.079068 -0.005008
  2C   3s        -0.203486 -0.285940 -0.067103  0.199365 -0.133826 -0.023372
  2C   2pz       -0.000000  0.000000 -0.000000  0.000000 -0.000000 -0.000000
  2C   2px        0.042561  0.017235 -0.000201  0.039073 -0.017503 -0.127594
  2C   2py        0.002314 -0.016363  0.073447 -0.071675 -0.111319 -0.007262
  2C   4s        -0.099155 -0.154631 -0.034551  0.138810 -0.093271 -0.037750
  2C   3pz       -0.000000 -0.000000 -0.000000 -0.000000  0.000000  0.000000
  2C   3px        0.007949  0.000182 -0.002791  0.015029 -0.005077 -0.071680
  2C   3py        0.000788 -0.005068  0.025057 -0.031410 -0.045431 -0.003466
  2C   5s        -0.001777 -0.009424 -0.001961 -0.126484  0.083692 -0.027212
  2C   4pz       -0.000000  0.000000  0.000000  0.000000 -0.000000 -0.000000
  2C   4px       -0.007201 -0.018901 -0.004731  0.037414 -0.024640 -0.001756
  2C   4py       -0.001099 -0.000608 -0.016465  0.008691  0.002784 -0.001642
  2C   1dz2       0.008929  0.008002  0.001855 -0.003572  0.002379 -0.001640
  2C   1dxz       0.000000 -0.000000 -0.000000  0.000000 -0.000000  0.000000
  2C   1dyz      -0.000000 -0.000000  0.000000  0.000000  0.000000 -0.000000
  2C   1dx2y2     0.000346  0.004768  0.002408 -0.002030  0.000386  0.008616
  2C   1dxy       0.000001  0.003163 -0.011138  0.004086  0.006466  0.000973
  3H   1s        -0.020911 -0.033247  0.035469 -0.063509 -0.031191 -0.068472
  3H   2s        -0.024944 -0.040119  0.042173 -0.081109 -0.040500 -0.087591
  3H   3s         0.006347  0.002490 -0.003072 -0.008837 -0.003818 -0.012599
  3H   1pz       -0.000000  0.000000 -0.000000  0.000000  0.000000 -0.000000
  3H   1px        0.002142  0.001317 -0.005115  0.006923 -0.001846  0.004552
  3H   1py        0.004244  0.007267 -0.005787  0.008558  0.006933  0.009041
  4C   1s         0.051923 -0.070820 -0.016606 -0.047688  0.031978  0.005724
  4C   2s         0.079297 -0.108785 -0.025510 -0.074063  0.049673  0.008732
  4C   1pz        0.000000 -0.000000 -0.000000 -0.000000  0.000000  0.000000
  4C   1px       -0.028443  0.010990 -0.000344 -0.027949  0.012414  0.091432
  4C   1py       -0.001580 -0.011011  0.049655  0.051001  0.079072  0.005008
  4C   3s        -0.203500  0.285934  0.067110  0.199359 -0.133824 -0.023373
  4C   2pz        0.000000  0.000000 -0.000000 -0.000000  0.000000  0.000000
  4C   2px       -0.042563  0.017233 -0.000202 -0.039073  0.017503  0.127601
  4C   2py       -0.002314 -0.016363  0.073450  0.071674  0.111323  0.007261
  4C   4s        -0.099161  0.154628  0.034555  0.138808 -0.093271 -0.037753
  4C   3pz        0.000000 -0.000000  0.000000  0.000000  0.000000 -0.000000
  4C   3px       -0.007949  0.000182 -0.002792 -0.015028  0.005077  0.071684
  4C   3py       -0.000788 -0.005068  0.025059  0.031409  0.045433  0.003466
  4C   5s        -0.001798  0.009424  0.001959 -0.126488  0.083679 -0.027200
  4C   4pz        0.000000  0.000000 -0.000000 -0.000000  0.000000  0.000000
  4C   4px        0.007198 -0.018901 -0.004732 -0.037414  0.024637  0.001760
  4C   4py        0.001098 -0.000608 -0.016464 -0.008691 -0.002784  0.001642
  4C   1dz2       0.008929 -0.008001 -0.001856 -0.003572  0.002379 -0.001640
  4C   1dxz       0.000000 -0.000000 -0.000000 -0.000000  0.000000 -0.000000
  4C   1dyz       0.000000 -0.000000  0.000000  0.000000  0.000000  0.000000
  4C   1dx2y2     0.000346 -0.004769 -0.002408 -0.002030  0.000386  0.008616
  4C   1dxy       0.000002 -0.003163  0.011138  0.004086  0.006466  0.000973
  5H   1s        -0.020901  0.014016  0.046497  0.004721  0.070534 -0.068306
  5H   2s        -0.024950  0.017206  0.056001  0.006695  0.090861 -0.088065
  5H   3s         0.006969 -0.001666 -0.004351 -0.000613  0.009148 -0.011177
  5H   1pz        0.000000 -0.000000  0.000000  0.000000  0.000000  0.000000
  5H   1px       -0.002596 -0.000663  0.006085 -0.003995  0.006881 -0.005525
  5H   1py        0.003967 -0.004042 -0.007785 -0.003656 -0.009843  0.008464
  6C   1s         0.051921 -0.049788  0.053049  0.051556  0.025314  0.005852
  6C   2s         0.079293 -0.076476  0.081494  0.080101  0.039321  0.008945
  6C   1pz       -0.000000 -0.000000 -0.000000 -0.000000  0.000000  0.000000
  6C   1px       -0.012866 -0.029813 -0.034636 -0.024933  0.081450  0.041153
  6C   1py       -0.025451  0.023300  0.008736  0.042695 -0.026307  0.081737
  6C   3s        -0.203439  0.201056 -0.214352 -0.216141 -0.106075 -0.024378
  6C   2pz        0.000000 -0.000000 -0.000000 -0.000000  0.000000 -0.000000
  6C   2px       -0.019086 -0.043908 -0.051365 -0.034994  0.114765  0.057825
  6C   2py       -0.037873  0.034792  0.012762  0.060228 -0.037063  0.114813
  6C   4s        -0.101006  0.111307 -0.113987 -0.146628 -0.071326 -0.037052
  6C   3pz       -0.000000  0.000000 -0.000000 -0.000000  0.000000  0.000000
  6C   3px       -0.005044 -0.014566 -0.016442 -0.016206  0.045278  0.029856
  6C   3py       -0.009769  0.011529  0.006930  0.022905 -0.016106  0.060214
  6C   5s         0.004070 -0.000274  0.007805  0.133355  0.061922  0.004601
  6C   4pz       -0.000000 -0.000000  0.000000  0.000000 -0.000000 -0.000000
  6C   4px        0.002585  0.009221  0.019535  0.022825  0.018445 -0.001787
  6C   4py        0.006049 -0.018755  0.006580  0.034079  0.013010  0.002114
  6C   1dz2       0.008947 -0.005565  0.005964  0.003761  0.001781 -0.001819
  6C   1dxz      -0.000000  0.000000 -0.000000 -0.000000 -0.000000  0.000000
  6C   1dyz       0.000000  0.000000  0.000000 -0.000000  0.000000  0.000000
  6C   1dx2y2    -0.000189 -0.004661 -0.008624 -0.003705  0.005024 -0.005125
  6C   1dxy       0.000237 -0.007847 -0.001683 -0.000592  0.004783  0.006902
  7H   1s        -0.020943  0.047355  0.011122  0.058842 -0.039450 -0.068259
  7H   2s        -0.024600  0.056301  0.013051  0.075082 -0.050525 -0.087312
  7H   3s         0.008265 -0.006664 -0.002195  0.006303 -0.005169 -0.006080
  7H   1pz       -0.000000  0.000000 -0.000000 -0.000000 -0.000000  0.000000
  7H   1px       -0.004775  0.010084  0.002193  0.009787 -0.006929 -0.010077
  7H   1py       -0.000258 -0.000117  0.002934  0.003471  0.004055 -0.000548
  8C   1s         0.051905  0.021026  0.069635 -0.003842 -0.057318  0.005842
  8C   2s         0.079267  0.032294  0.106970 -0.005953 -0.089046  0.008924
  8C   1pz       -0.000000 -0.000000 -0.000000 -0.000000 -0.000000 -0.000000
  8C   1px        0.015626 -0.039126  0.017956  0.079798  0.011052 -0.049963
  8C   1py       -0.023895 -0.029255 -0.000563  0.049631 -0.028456  0.076619
  8C   3s        -0.203410 -0.084893 -0.281253  0.015924  0.240156 -0.024059
  8C   2pz       -0.000000 -0.000000 -0.000000 -0.000000  0.000000  0.000000
  8C   2px        0.023140 -0.057572  0.026868  0.112250  0.015624 -0.069855
  8C   2py       -0.035427 -0.043496 -0.001112  0.070089 -0.040179  0.107527
  8C   4s        -0.099517 -0.047849 -0.153493  0.010336  0.164355 -0.037601
  8C   3pz        0.000000 -0.000000 -0.000000  0.000000 -0.000000 -0.000000
  8C   3px        0.005389 -0.018880  0.008050  0.044026  0.004790 -0.036715
  8C   3py       -0.008693 -0.014519  0.000337  0.027136 -0.012947  0.055484
  8C   5s        -0.000025 -0.008956 -0.011794 -0.006044 -0.145717  0.001646
  8C   4pz        0.000000  0.000000 -0.000000 -0.000000  0.000000  0.000000
  8C   4px       -0.002856  0.011774 -0.010068  0.011517  0.028680  0.001742
  8C   4py        0.006145  0.014075  0.013363  0.003464 -0.034130  0.005433
  8C   1dz2       0.008896  0.002305  0.007784 -0.000231 -0.004133 -0.001748
  8C   1dxz      -0.000000  0.000000  0.000000  0.000000 -0.000000  0.000000
  8C   1dyz       0.000000 -0.000000  0.000000  0.000000  0.000000  0.000000
  8C   1dx2y2    -0.000118  0.009549 -0.005064 -0.006970  0.001207 -0.003467
  8C   1dxy      -0.000327 -0.005825 -0.003232  0.003197  0.001601 -0.007856
  9H   1s        -0.020942 -0.047355 -0.011121  0.058843 -0.039450 -0.068254
  9H   2s        -0.024598 -0.056300 -0.013049  0.075082 -0.050525 -0.087306
  9H   3s         0.008264  0.006664  0.002195  0.006302 -0.005168 -0.006078
  9H   1pz        0.000000 -0.000000  0.000000  0.000000 -0.000000 -0.000000
  9H   1px        0.004774  0.010084  0.002193 -0.009787  0.006929  0.010076
  9H   1py        0.000258 -0.000117  0.002933 -0.003471 -0.004055  0.000548
 10H   1s        -0.020912  0.033244 -0.035470 -0.063508 -0.031189 -0.068472
 10H   2s        -0.024945  0.040116 -0.042174 -0.081109 -0.040498 -0.087592
 10H   3s         0.006347 -0.002490  0.003073 -0.008838 -0.003818 -0.012600
 10H   1pz        0.000000  0.000000  0.000000 -0.000000  0.000000 -0.000000
 10H   1px       -0.002142  0.001317 -0.005116 -0.006923  0.001846 -0.004552
 10H   1py       -0.004244  0.007266 -0.005787 -0.008558 -0.006933 -0.009041
 11H   1s        -0.020900 -0.014018 -0.046497  0.004725  0.070534 -0.068306
 11H   2s        -0.024950 -0.017209 -0.056000  0.006701  0.090860 -0.088065
 11H   3s         0.006969  0.001667  0.004351 -0.000612  0.009148 -0.011177
 11H   1pz       -0.000000  0.000000 -0.000000 -0.000000  0.000000  0.000000
 11H   1px        0.002596 -0.000663  0.006086  0.003994 -0.006881  0.005525
 11H   1py       -0.003966 -0.004042 -0.007785  0.003656  0.009842 -0.008464
                     12        13        14        15        16        17   
                  -0.41419  -0.40089  -0.37754  -0.37736  -0.33183  -0.30426
                   2.00000   2.00000   2.00000   2.00000   2.00000   2.00000
                  --------  --------  --------  --------  --------  --------
  0C   1s         0.033407  0.000027 -0.000639  0.013011 -0.000000 -0.001363
  0C   2s         0.052191  0.000047 -0.001011  0.020363 -0.000000 -0.002214
  0C   1pz       -0.000000 -0.000000  0.000000 -0.000000 -0.100593 -0.000000
  0C   1px        0.032742 -0.107600 -0.027870 -0.078131 -0.000000 -0.053186
  0C   1py       -0.050105 -0.070142 -0.026486  0.116341  0.000000 -0.104722
  0C   3s        -0.141981 -0.000162  0.003104 -0.061756  0.000000  0.008558
  0C   2pz       -0.000000 -0.000000  0.000000  0.000000 -0.159355 -0.000000
  0C   2px        0.046066 -0.152446 -0.044749 -0.109534 -0.000000 -0.073339
  0C   2py       -0.070323 -0.099856 -0.040569  0.163090  0.000000 -0.146211
  0C   4s        -0.180585 -0.002059  0.003429 -0.058568  0.000000 -0.010223
  0C   3pz       -0.000000  0.000000  0.000000 -0.000000 -0.107168 -0.000000
  0C   3px        0.012513 -0.077016  0.011555 -0.062254 -0.000000 -0.041702
  0C   3py       -0.017180 -0.049046 -0.000775  0.095326  0.000000 -0.093575
  0C   5s         0.013192  0.031743 -0.040034  0.082981  0.000000 -0.030979
  0C   4pz        0.000000 -0.000000 -0.000000  0.000000 -0.004833 -0.000000
  0C   4px        0.010071 -0.004926 -0.031647  0.003714  0.000000 -0.019139
  0C   4py       -0.004997 -0.002621 -0.018506  0.014252 -0.000000 -0.014977
  0C   1dz2       0.000715  0.000048  0.000009 -0.000972  0.000000  0.000030
  0C   1dxz       0.000000 -0.000000 -0.000000 -0.000000 -0.007000 -0.000000
  0C   1dyz       0.000000 -0.000000 -0.000000  0.000000  0.010666 -0.000000
  0C   1dx2y2     0.007293 -0.003702 -0.019031 -0.001733 -0.000000 -0.004143
  0C   1dxy       0.016463  0.001652  0.008429 -0.001548 -0.000000  0.019112
  1C   1s        -0.033341 -0.000001  0.010992  0.007165  0.000000  0.002443
  1C   2s        -0.052091 -0.000004  0.017188  0.011202  0.000000  0.003941
  1C   1pz       -0.000000 -0.000000 -0.000000 -0.000000 -0.100577 -0.000000
  1C   1px        0.027290  0.114692  0.035065  0.062364  0.000000  0.038041
  1C   1py        0.053743 -0.058049  0.114280  0.053307 -0.000000  0.096272
  1C   3s         0.141802  0.000097 -0.051709 -0.033744 -0.000000 -0.014815
  1C   2pz       -0.000000 -0.000000  0.000000 -0.000000 -0.159504 -0.000000
  1C   2px        0.038422  0.162771  0.045857  0.092546  0.000000  0.053416
  1C   2py        0.075453 -0.082608  0.161891  0.072425 -0.000000  0.135170
  1C   4s         0.179072 -0.002616 -0.052426 -0.036315  0.000000  0.014237
  1C   3pz        0.000000 -0.000000 -0.000000  0.000000 -0.106744 -0.000000
  1C   3px        0.010258  0.082062  0.048848  0.020754 -0.000000  0.040425
[...]
 0 C  s               0.0       0.0       0.0       0.2       0.0       0.0
 0 C  pz             25.4       0.0       0.0       0.0      15.6       0.0
 0 C  px              0.0       3.2       0.3       2.2       0.0      11.1
 0 C  py              0.0       1.2       0.4       5.1       0.0       4.7
 0 C  dz2             0.0       0.0       0.0       0.5       0.0       0.0
 0 C  dxz             0.1       0.0       0.0       0.0       0.3       0.0
 0 C  dyz             0.0       0.0       0.0       0.0       0.7       0.0
 0 C  dx2y2           0.0       7.5       0.7       2.6       0.0       0.6
 0 C  dxy             0.0       1.3       1.2      10.9       0.0       0.1
 1 C  s               0.0       0.0       0.2       0.0       0.0       0.0
 1 C  pz             23.9       0.0       0.0       0.0      15.6       0.0
 1 C  px              0.0       3.6       1.5       0.4       0.0      12.6
 1 C  py              0.0       0.8       5.2       1.0       0.0       3.2
 1 C  dz2             0.0       0.0       0.4       0.1       0.0       0.0
 1 C  dxz             0.2       0.0       0.0       0.0       0.2       0.0
 1 C  dyz             0.0       0.0       0.0       0.0       0.9       0.0
 1 C  dx2y2           0.0       5.9       5.6       0.0       0.0       0.5
 1 C  dxy             0.0       2.9       6.8       2.9       0.0       0.2
 2 C  s               0.0       0.0       0.1       0.1       0.0       0.0
 2 C  pz              0.0       0.0       0.0       0.0      15.4       0.0
 2 C  px              0.0       0.0       4.3       3.2       0.0       0.0
 2 C  py              0.0       4.4       0.3       0.3       0.0      15.8
 2 C  dz2             0.0       0.0       0.3       0.2       0.0       0.0
 2 C  dxz             0.0       0.0       0.0       0.0       1.1       0.0
 2 C  dyz             0.3       0.0       0.0       0.0       0.0       0.0
 2 C  dx2y2           0.0       0.1       8.5       5.3       0.0       0.0
 2 C  dxy             0.0       8.9       0.2       1.3       0.0       0.7
 3 H  s               0.0       0.0       6.6       0.8       0.0       0.0
 3 H  px              0.0       2.7       0.4       0.4       0.0       0.1
 3 H  py              0.0       0.6       0.5       0.5       0.0       0.0
 4 C  s               0.0       0.0       0.1       0.1       0.0       0.0
 4 C  pz              0.0       0.0       0.0       0.0      15.4       0.0
 4 C  px              0.0       0.0       4.3       3.2       0.0       0.0
 4 C  py              0.0       4.4       0.3       0.3       0.0      15.8
 4 C  dz2             0.0       0.0       0.3       0.2       0.0       0.0
 4 C  dxz             0.0       0.0       0.0       0.0       1.1       0.0
 4 C  dyz             0.3       0.0       0.0       0.0       0.0       0.0
 4 C  dx2y2           0.0       0.1       8.5       5.3       0.0       0.0
 4 C  dxy             0.0       8.9       0.2       1.3       0.0       0.7
 5 H  s               0.0       0.0       0.2       7.1       0.0       0.0
 5 H  px              0.0       2.4       0.5       0.4       0.0       0.1
 5 H  py              0.0       1.0       0.4       0.6       0.0       0.0
 6 C  s               0.0       0.0       0.2       0.0       0.0       0.0
 6 C  pz             23.9       0.0       0.0       0.0      15.6       0.0
 6 C  px              0.0       3.6       1.5       0.4       0.0      12.6
 6 C  py              0.0       0.8       5.2       1.0       0.0       3.2
 6 C  dz2             0.0       0.0       0.4       0.1       0.0       0.0
 6 C  dxz             0.2       0.0       0.0       0.0       0.2       0.0
 6 C  dyz             0.0       0.0       0.0       0.0       0.9       0.0
 6 C  dx2y2           0.0       5.9       5.6       0.0       0.0       0.5
 6 C  dxy             0.0       2.9       6.8       2.9       0.0       0.2
 7 H  s               0.0       0.0       4.3       3.1       0.0       0.0
 7 H  px              0.0       0.0       0.5       0.5       0.0       0.0
 7 H  py              0.0       3.4       0.4       0.4       0.0       0.1
 8 C  s               0.0       0.0       0.0       0.2       0.0       0.0
 8 C  pz             25.4       0.0       0.0       0.0      15.6       0.0
 8 C  px              0.0       3.2       0.3       2.2       0.0      11.1
 8 C  py              0.0       1.2       0.4       5.1       0.0       4.7
 8 C  dz2             0.0       0.0       0.0       0.5       0.0       0.0
 8 C  dxz             0.1       0.0       0.0       0.0       0.3       0.0
 8 C  dyz             0.0       0.0       0.0       0.0       0.7       0.0
 8 C  dx2y2           0.0       7.5       0.7       2.6       0.0       0.6
 8 C  dxy             0.0       1.3       1.2      10.9       0.0       0.1
 9 H  s               0.0       0.0       4.3       3.1       0.0       0.0
 9 H  px              0.0       0.0       0.5       0.5       0.0       0.0
 9 H  py              0.0       3.4       0.4       0.4       0.0       0.1
10 H  s               0.0       0.0       6.6       0.8       0.0       0.0
10 H  px              0.0       2.7       0.4       0.4       0.0       0.1
10 H  py              0.0       0.6       0.5       0.5       0.0       0.0
11 H  s               0.0       0.0       0.2       7.1       0.0       0.0
11 H  px              0.0       2.4       0.5       0.4       0.0       0.1
11 H  py              0.0       1.0       0.4       0.6       0.0       0.0

                    150       151       152       153       154       155   
                   3.24127   3.24185   3.38063   3.38111   3.39806   3.55601
                   0.00000   0.00000   0.00000   0.00000   0.00000   0.00000
                  --------  --------  --------  --------  --------  --------
 0 C  s               1.3       1.1       1.1       0.4       0.8       0.5
 0 C  px              4.1      14.2      10.1       0.9       3.8       0.6
 0 C  py              9.3       0.9       5.2       9.6       8.9       1.4
 0 C  dz2             0.2       0.1       0.1       0.0       0.0       0.2
 0 C  dx2y2           0.2       0.5       0.4       0.0       0.2       1.7
 0 C  dxy             0.2       0.0       0.9       0.5       0.8       8.9
 1 C  s               2.2       0.2       1.1       0.4       0.8       0.5
 1 C  px              0.3      20.0       8.6       1.6       2.6       0.4
 1 C  py              5.7       2.6       6.6       9.1      10.1       1.6
 1 C  dz2             0.3       0.0       0.1       0.0       0.0       0.2
 1 C  dx2y2           0.0       0.6       0.7       0.0       0.4       3.7
 1 C  dxy             0.2       0.2       0.6       0.5       0.7       6.9
 2 C  s               0.1       2.3       0.0       1.5       0.8       0.5
 2 C  px              0.0       4.1       0.0      17.5      12.7       1.9
 2 C  py             23.3       1.0       8.2       0.0       0.0       0.0
 2 C  dz2             0.0       0.3       0.0       0.1       0.0       0.2
 2 C  dx2y2           0.0       0.1       0.0       1.6       1.0      10.5
 2 C  dxy             0.7       0.1       0.2       0.0       0.0       0.1
 3 H  s               0.7       0.1       2.2       0.8       1.5       3.1
 3 H  px              0.1       0.0       0.2       0.1       0.1       0.1
 3 H  py              0.3       0.0       0.7       0.2       0.5       0.3
 4 C  s               0.1       2.3       0.0       1.5       0.8       0.5
 4 C  px              0.0       4.1       0.0      17.5      12.7       1.9
 4 C  py             23.3       1.0       8.2       0.0       0.0       0.0
 4 C  dz2             0.0       0.3       0.0       0.1       0.0       0.2
 4 C  dx2y2           0.0       0.1       0.0       1.6       1.0      10.5
 4 C  dxy             0.7       0.1       0.2       0.0       0.0       0.1
 5 H  s               0.4       0.4       2.2       0.7       1.5       3.1
 5 H  px              0.1       0.1       0.2       0.1       0.2       0.1
 5 H  py              0.2       0.1       0.6       0.2       0.5       0.2
 6 C  s               2.2       0.2       1.1       0.4       0.8       0.5
 6 C  px              0.3      20.0       8.6       1.6       2.6       0.4
 6 C  py              5.7       2.6       6.6       9.1      10.1       1.6
 6 C  dz2             0.3       0.0       0.1       0.0       0.0       0.2
 6 C  dx2y2           0.0       0.6       0.7       0.0       0.4       3.7
 6 C  dxy             0.2       0.2       0.6       0.5       0.7       6.9
 7 H  s               0.0       0.7       0.0       3.0       1.5       3.1
 7 H  px              0.0       0.4       0.0       1.1       0.7       0.3
 8 C  s               1.3       1.1       1.1       0.4       0.8       0.5
 8 C  px              4.2      14.2      10.1       0.9       3.8       0.6
 8 C  py              9.3       0.9       5.2       9.6       8.9       1.4
 8 C  dz2             0.2       0.1       0.1       0.0       0.0       0.2
 8 C  dx2y2           0.2       0.5       0.4       0.0       0.2       1.7
 8 C  dxy             0.2       0.0       0.9       0.5       0.9       8.9
 9 H  s               0.0       0.7       0.0       2.9       1.5       3.1
 9 H  px              0.0       0.4       0.0       1.1       0.7       0.3
10 H  s               0.7       0.1       2.2       0.8       1.5       3.1
10 H  px              0.1       0.0       0.2       0.1       0.1       0.1
10 H  py              0.3       0.0       0.7       0.2       0.5       0.3
11 H  s               0.4       0.4       2.2       0.7       1.5       3.1
11 H  px              0.1       0.1       0.2       0.1       0.2       0.1
11 H  py              0.2       0.1       0.6       0.2       0.5       0.2

                    156       157       158       159       160       161   
                   3.88127   3.88142   3.97472   4.04743   4.04852   4.73437
                   0.00000   0.00000   0.00000   0.00000   0.00000   0.00000
                  --------  --------  --------  --------  --------  --------
 0 C  s               0.2       0.4       0.6       0.2       0.9       0.0
 0 C  px              7.9       1.1       3.9      16.1       0.1      10.0
 0 C  py              1.9      13.8       9.2       2.0       8.6       4.3
 0 C  dx2y2           0.9       0.0       0.2       2.3       0.0       2.0
 0 C  dxy             0.5       2.2       0.8       0.0       1.5       0.4
 1 C  s               0.6       0.0       0.6       0.4       0.7       0.0
 1 C  px              5.0       2.4       2.7      15.4       2.2      11.4
 1 C  py             15.5       1.8      10.5       0.2       9.0       2.9
 1 C  dx2y2           1.2       0.2       0.3       2.0       0.0       1.5
 1 C  dxy             1.9       0.3       0.6       0.0       1.7       0.8
 2 C  s               0.1       0.5       0.6       1.0       0.0       0.0
 2 C  px              3.7      16.9      13.0       6.1       0.3       0.0
 2 C  py              2.9       1.1       0.0       0.4      20.0      14.3
 2 C  dx2y2           0.4       2.7       0.9       1.3       0.0       0.0
 2 C  dxy             0.5       0.0       0.0       0.0       2.5       2.3
 3 H  s               3.3       0.0       1.4       0.5       1.0       0.0
 3 H  px              0.2       0.0       0.1       0.0       0.0       0.0
 3 H  py              0.9       0.0       0.5       0.1       0.1       0.0
 4 C  s               0.1       0.5       0.6       1.0       0.0       0.0
 4 C  px              3.7      16.9      13.0       6.1       0.3       0.0
 4 C  py              2.9       1.1       0.0       0.4      20.0      14.3
 4 C  dx2y2           0.4       2.7       0.9       1.3       0.0       0.0
 4 C  dxy             0.5       0.0       0.0       0.0       2.5       2.3
 5 H  s               1.2       2.2       1.4       0.2       1.2       0.0
 5 H  px              0.1       0.2       0.2       0.0       0.1       0.0
 5 H  py              0.3       0.5       0.5       0.0       0.1       0.0
 6 C  s               0.6       0.0       0.6       0.4       0.7       0.0
 6 C  px              5.0       2.4       2.7      15.4       2.2      11.4
 6 C  py             15.5       1.8      10.5       0.2       9.0       2.9
 6 C  dx2y2           1.2       0.2       0.3       2.0       0.0       1.5
 6 C  dxy             1.9       0.3       0.6       0.0       1.7       0.8
 7 H  s               0.5       2.8       1.4       1.5       0.0       0.0
 7 H  px              0.2       0.9       0.7       0.2       0.0       0.0
 8 C  s               0.2       0.4       0.6       0.2       0.9       0.0
 8 C  px              7.9       1.1       3.9      16.1       0.1      10.0
 8 C  py              1.9      13.8       9.2       2.0       8.6       4.3
 8 C  dx2y2           0.9       0.0       0.2       2.3       0.0       2.0
 8 C  dxy             0.5       2.2       0.8       0.0       1.5       0.4
 9 H  s               0.5       2.8       1.4       1.5       0.0       0.0
 9 H  px              0.2       0.9       0.7       0.2       0.0       0.0
10 H  s               3.3       0.0       1.4       0.5       1.0       0.0
10 H  px              0.2       0.0       0.1       0.0       0.0       0.0
10 H  py              0.9       0.0       0.5       0.1       0.1       0.0
11 H  s               1.2       2.2       1.4       0.2       1.2       0.0
11 H  px              0.1       0.2       0.2       0.0       0.1       0.0
11 H  py              0.3       0.5       0.5       0.0       0.1       0.0

                    162       163       164       165       166       167   
                  23.31930  23.68868  23.68886  23.81224  23.81277  23.91863
                   0.00000   0.00000   0.00000   0.00000   0.00000   0.00000
                  --------  --------  --------  --------  --------  --------
 0 C  s              16.6       0.1      32.9      11.5      21.7      16.6
 1 C  s              16.6      23.0      10.1       5.5      27.7      16.6
 2 C  s              16.6      26.5       6.6      32.8       0.4      16.5
 2 C  py              0.0       0.0       0.1       0.0       0.1       0.0
 4 C  s              16.6      26.5       6.6      32.8       0.4      16.5
 4 C  py              0.0       0.0       0.1       0.0       0.1       0.0
 6 C  s              16.6      23.0      10.1       5.5      27.7      16.6
 8 C  s              16.6       0.1      32.9      11.5      21.7      16.6



                      *****************************
                      * MAYER POPULATION ANALYSIS *
                      *****************************

  NA   - Mulliken gross atomic population
  ZA   - Total nuclear charge
  QA   - Mulliken gross atomic charge
  VA   - Mayer's total valence
  BVA  - Mayer's bonded valence
  FA   - Mayer's free valence

  ATOM       NA         ZA         QA         VA         BVA        FA
  0 C      6.1432     6.0000    -0.1432     3.9714     3.9714    -0.0000
  1 C      6.1036     6.0000    -0.1036     3.9357     3.9357    -0.0000
  2 C      6.1745     6.0000    -0.1745     3.9940     3.9940     0.0000
  3 H      0.8654     1.0000     0.1346     0.9599     0.9599    -0.0000
  4 C      6.1745     6.0000    -0.1745     3.9940     3.9940    -0.0000
  5 H      0.8640     1.0000     0.1360     0.9590     0.9590     0.0000
  6 C      6.1036     6.0000    -0.1036     3.9358     3.9358    -0.0000
  7 H      0.8493     1.0000     0.1507     0.9527     0.9527    -0.0000
  8 C      6.1432     6.0000    -0.1432     3.9714     3.9714    -0.0000
  9 H      0.8493     1.0000     0.1507     0.9527     0.9527    -0.0000
 10 H      0.8654     1.0000     0.1346     0.9599     0.9599    -0.0000
 11 H      0.8640     1.0000     0.1360     0.9590     0.9590     0.0000

  Mayer bond orders larger than 0.100000
B(  0-C ,  1-C ) :   1.4553 B(  0-C ,  4-C ) :   1.4707 B(  0-C ,  5-H ) :   0.9662 
B(  1-C ,  2-C ) :   1.4628 B(  1-C ,  3-H ) :   0.9495 B(  2-C ,  8-C ) :   1.4707 
B(  2-C ,  9-H ) :   0.9608 B(  4-C ,  6-C ) :   1.4628 B(  4-C ,  7-H ) :   0.9608 
B(  6-C ,  8-C ) :   1.4553 B(  6-C , 10-H ) :   0.9495 B(  8-C , 11-H ) :   0.9662 


-------
TIMINGS
-------

Total SCF time: 0 days 0 hours 0 min 7 sec 

Total time                  ....       7.990 sec
Sum of individual times     ....       7.510 sec  ( 94.0%)

Fock matrix formation       ....       6.167 sec  ( 77.2%)
  Split-RI-J                ....       2.769 sec  ( 44.9% of F)
  XC integration            ....       3.237 sec  ( 52.5% of F)
    Basis function eval.    ....       0.846 sec  ( 26.1% of XC)
    Density eval.           ....       0.739 sec  ( 22.8% of XC)
    XC-Functional eval.     ....       0.176 sec  (  5.5% of XC)
    XC-Potential eval.      ....       1.252 sec  ( 38.7% of XC)
Diagonalization             ....       0.009 sec  (  0.1%)
Density matrix formation    ....       0.002 sec  (  0.0%)
Population analysis         ....       0.068 sec  (  0.9%)
Initial guess               ....       0.015 sec  (  0.2%)
Orbital Transformation      ....       0.000 sec  (  0.0%)
Orbital Orthonormalization  ....       0.010 sec  (  0.1%)
DIIS solution               ....       0.002 sec  (  0.0%)
SOSCF solution              ....       0.037 sec  (  0.5%)
Grid generation             ....       1.211 sec  ( 15.2%)

-------------------------   --------------------
FINAL SINGLE POINT ENERGY      -231.995186832795
-------------------------   --------------------

                                *** OPTIMIZATION RUN DONE ***

                            ***************************************
                            *     ORCA property calculations      *
                            ***************************************

                                    ---------------------
                                    Active property flags
                                    ---------------------
   (+) Dipole Moment


------------------------------------------------------------------------------
                       ORCA ELECTRIC PROPERTIES CALCULATION
------------------------------------------------------------------------------

Dipole Moment Calculation                       ... on
Quadrupole Moment Calculation                   ... off
Polarizability Calculation                      ... off
GBWName                                         ... ben.gbw
Electron density file                           ... ben.scfp
The origin for moment calculation is the CENTER OF MASS  = (-10.713852, -1.324928  0.000000)

-------------
DIPOLE MOMENT
-------------
                                X             Y             Z
Electronic contribution:      0.00000       0.00000       0.00000
Nuclear contribution   :      0.00000       0.00000      -0.00000
                        -----------------------------------------
Total Dipole Moment    :      0.00001       0.00000      -0.00000
                        -----------------------------------------
Magnitude (a.u.)       :      0.00001
Magnitude (Debye)      :      0.00001



--------------------
Rotational spectrum 
--------------------
 
Rotational constants in cm-1:     0.188390     0.188366     0.094189 
Rotational constants in MHz :  5647.794489  5647.069043  2823.715871 

 Dipole components along the rotational axes: 
x,y,z [a.u.] :     0.000003     0.000005    -0.000000 
x,y,z [Debye]:     0.000006     0.000013    -0.000000 

 

Timings for individual modules:

Sum of individual times         ...       56.574 sec (=   0.943 min)
GTO integral calculation        ...        1.895 sec (=   0.032 min)   3.3 %
SCF iterations                  ...       36.006 sec (=   0.600 min)  63.6 %
SCF Gradient evaluation         ...       17.355 sec (=   0.289 min)  30.7 %
Geometry relaxation             ...        1.318 sec (=   0.022 min)   2.3 %
                             ****ORCA TERMINATED NORMALLY****
TOTAL RUN TIME: 0 days 0 hours 0 minutes 58 seconds 121 msec
