
                                 *****************
                                 * O   R   C   A *
                                 *****************

           --- An Ab Initio, DFT and Semiempirical electronic structure package ---

                  #######################################################
                  #                        -***-                        #
                  #          Department of theory and spectroscopy      #
                  #               Directorship: Frank Neese             #
                  #        Max Planck Institute fuer Kohlenforschung    #
                  #                Kaiser Wilhelm Platz 1               #
                  #                 D-45470 Muelheim/Ruhr               #
                  #                      Germany                        #
                  #                                                     #
                  #                  All rights reserved                #
                  #                        -***-                        #
                  #######################################################


                         Program Version 4.2.1 -  RELEASE  -


 With contributions from (in alphabetic order):
   Daniel Aravena         : Magnetic Suceptibility
   Michael Atanasov       : Ab Initio Ligand Field Theory (pilot matlab implementation)
   Alexander A. Auer      : GIAO ZORA, VPT2
   Ute Becker             : Parallelization
   Giovanni Bistoni       : ED, misc. LED, open-shell LED, HFLD
   Martin Brehm           : Molecular dynamics
   Dmytro Bykov           : SCF Hessian
   Vijay G. Chilkuri      : MRCI spin determinant printing, contributions to CSF-ICE
   Dipayan Datta          : RHF DLPNO-CCSD density
   Achintya Kumar Dutta   : EOM-CC, STEOM-CC
   Dmitry Ganyushin       : Spin-Orbit,Spin-Spin,Magnetic field MRCI
   Miquel Garcia          : C-PCM Hessian, Gaussian charge scheme
   Yang Guo               : DLPNO-NEVPT2, CIM, IAO-localization
   Andreas Hansen         : Spin unrestricted coupled pair/coupled cluster methods
   Benjamin Helmich-Paris : CASSCF linear response (MC-RPA)
   Lee Huntington         : MR-EOM, pCC
   Robert Izsak           : Overlap fitted RIJCOSX, COSX-SCS-MP3, EOM
   Christian Kollmar      : KDIIS, OOCD, Brueckner-CCSD(T), CCSD density
   Simone Kossmann        : Meta GGA functionals, TD-DFT gradient, OOMP2, MP2 Hessian
   Martin Krupicka        : AUTO-CI
   Lucas Lang             : DCDCAS
   Dagmar Lenk            : GEPOL surface, SMD
   Dimitrios Liakos       : Extrapolation schemes; Compound Job, initial MDCI parallelization
   Dimitrios Manganas     : Further ROCIS development; embedding schemes
   Dimitrios Pantazis     : SARC Basis sets
   Taras Petrenko         : DFT Hessian,TD-DFT gradient, ASA, ECA, R-Raman, ABS, FL, XAS/XES, NRVS
   Peter Pinski           : DLPNO-MP2, DLPNO-MP2 Gradient
   Christoph Reimann      : Effective Core Potentials
   Marius Retegan         : Local ZFS, SOC
   Christoph Riplinger    : Optimizer, TS searches, QM/MM, DLPNO-CCSD(T), (RO)-DLPNO pert. Triples
   Tobias Risthaus        : Range-separated hybrids, TD-DFT gradient, RPA, STAB
   Michael Roemelt        : Original ROCIS implementation
   Masaaki Saitow         : Open-shell DLPNO-CCSD energy and density
   Barbara Sandhoefer     : DKH picture change effects
   Avijit Sen             : IP-ROCIS
   Kantharuban Sivalingam : CASSCF convergence, NEVPT2, FIC-MRCI
   Bernardo de Souza      : ESD, SOC TD-DFT
   Georgi Stoychev        : AutoAux, RI-MP2 NMR
   Willem Van den Heuvel  : Paramagnetic NMR
   Boris Wezisla          : Elementary symmetry handling
   Frank Wennmohs         : Technical directorship


 We gratefully acknowledge several colleagues who have allowed us to
 interface, adapt or use parts of their codes:
   Stefan Grimme, W. Hujo, H. Kruse,             : VdW corrections, initial TS optimization,
                  C. Bannwarth                     DFT functionals, gCP, sTDA/sTD-DF
   Ed Valeev, F. Pavosevic, A. Kumar             : LibInt (2-el integral package), F12 methods
   Garnet Chan, S. Sharma, J. Yang, R. Olivares  : DMRG
   Ulf Ekstrom                                   : XCFun DFT Library
   Mihaly Kallay                                 : mrcc  (arbitrary order and MRCC methods)
   Andreas Klamt, Michael Diedenhofen            : otool_cosmo (COSMO solvation model)
   Jiri Pittner, Ondrej Demel                    : Mk-CCSD
   Frank Weinhold                                : gennbo (NPA and NBO analysis)
   Christopher J. Cramer and Donald G. Truhlar   : smd solvation model
   Lars Goerigk                                  : TD-DFT with DH, B97 family of functionals
   V. Asgeirsson, H. Jonsson                     : NEB implementation
   FAccTs GmbH                                   : IRC, NEB, NEB-TS, Multilevel, MM, QM/MM, CI optimization
   S Lehtola, MJT Oliveira, MAL Marques          : LibXC Library


 Your calculation uses the libint2 library for the computation of 2-el integrals
 For citations please refer to: http://libint.valeyev.net

 Your ORCA version has been built with support for libXC version: 4.2.3
 For citations please refer to: https://tddft.org/programs/libxc/

 This ORCA versions uses:
   CBLAS   interface :  Fast vector & matrix operations
   LAPACKE interface :  Fast linear algebra routines
   SCALAPACK package :  Parallel linear algebra routines


----- Orbital basis set information -----
Your calculation utilizes the basis: 6-311+G(d,p)
   H, Li - Ne  : R. Krishnan, J. S. Binkley, R. Seeger and J. A. Pople, J. Chem. Phys. 72, 650 (1980).
   Na - Ar     : A. D. McLean and G. S. Chandler J. Chem. Phys. 72, 5639, (1980).
   K  - Ca     : J.-P. Blaudeau, M. P. McGrath, L. A. Curtiss and L. Radom, J. Chem. Phys. 107, 5016 (1997).
   Ga - Kr     : L. A. Curtiss, M. P. McGrath, J.-P. Blandeau, N. E. Davis, R. C. Binning and L. Radom, J. Chem. Phys. 103, 6104 (1995).
   Pol./Diff.
   H, Li - Cl  : T. Clark, J. Chandrasekhar and P. v. R. Schleyer, J. Comp. Chem. 4, 294 (1983).
   H - Ne      : M. J. Frisch, J. A. Pople and J. S. Binkley, J. Chem. Phys. 80, 3265 (1984).

----- AuxJ basis set information -----
Your calculation utilizes the auxiliary basis: def2/J
   F. Weigend, Phys. Chem. Chem. Phys. 8, 1057 (2006).

================================================================================
                                        WARNINGS
                       Please study these warnings very carefully!
================================================================================


WARNING: Geometry Optimization
  ===> : Switching off AutoStart
         For restart on a previous wavefunction, please use MOREAD

INFO   : the flag for use of LIBINT has been found!

================================================================================
                                       INPUT FILE
================================================================================
NAME = ben.inp
|  1> ! LDA 6-311+G(d,p) Opt 
|  2> 
|  3> ! Normalprint
|  4> %output
|  5> Print[P_Basis] 2
|  6> Print[P_MOs] 1
|  7> end
|  8> 
|  9> * xyz 0 1
| 10>    C       -6.43508        0.46988        0.00000
| 11>    C       -5.03818        0.54737       -0.00000
| 12>    C       -4.27263       -0.62364       -0.00000
| 13>    H       -4.54975        1.51323       -0.00000
| 14>    C       -7.06642       -0.77860        0.00000
| 15>    H       -7.02732        1.37581        0.00000
| 16>    C       -6.30087       -1.94961        0.00000
| 17>    H       -8.14710       -0.83854        0.00000
| 18>    C       -4.90398       -1.87213        0.00000
| 19>    H       -3.19195       -0.56370       -0.00000
| 20>    H       -6.78930       -2.91548        0.00000
| 21>    H       -4.31173       -2.77805        0.00000
| 22> *
| 23> 
| 24>                          ****END OF INPUT****
================================================================================

                       *****************************
                       * Geometry Optimization Run *
                       *****************************

Geometry optimization settings:
Update method            Update   .... BFGS
Choice of coordinates    CoordSys .... Z-matrix Internals
Initial Hessian          InHess   .... Almoef's Model

Convergence Tolerances:
Energy Change            TolE     ....  5.0000e-06 Eh
Max. Gradient            TolMAXG  ....  3.0000e-04 Eh/bohr
RMS Gradient             TolRMSG  ....  1.0000e-04 Eh/bohr
Max. Displacement        TolMAXD  ....  4.0000e-03 bohr
RMS Displacement         TolRMSD  ....  2.0000e-03 bohr
Strict Convergence                ....  False
------------------------------------------------------------------------------
                        ORCA OPTIMIZATION COORDINATE SETUP
------------------------------------------------------------------------------

The optimization will be done in new redundant internal coordinates
Making redundant internal coordinates   ...  (new redundants) done
Evaluating the initial hessian          ...  (Almloef) done
Evaluating the coordinates              ...  done
Calculating the B-matrix                .... done
Calculating the G-matrix                .... done
Diagonalizing the G-matrix              .... done
The first mode is                       ....   24
The number of degrees of freedom        ....   30

    -----------------------------------------------------------------
                    Redundant Internal Coordinates


    -----------------------------------------------------------------
         Definition                    Initial Value    Approx d2E/dq
    -----------------------------------------------------------------
      1. B(C   1,C   0)                  1.3990         0.604371   
      2. B(C   2,C   1)                  1.3990         0.604373   
      3. B(H   3,C   1)                  1.0823         0.370384   
      4. B(C   4,C   0)                  1.3990         0.604404   
      5. B(H   5,C   0)                  1.0823         0.370379   
      6. B(C   6,C   4)                  1.3990         0.604373   
      7. B(H   7,C   4)                  1.0823         0.370376   
      8. B(C   8,C   6)                  1.3990         0.604394   
      9. B(C   8,C   2)                  1.3990         0.604374   
     10. B(H   9,C   2)                  1.0823         0.370376   
     11. B(H  10,C   6)                  1.0823         0.370372   
     12. B(H  11,C   8)                  1.0823         0.370383   
     13. A(C   1,C   0,H   5)          119.9990         0.353065   
     14. A(C   4,C   0,H   5)          120.0007         0.353068   
     15. A(C   1,C   0,C   4)          120.0002         0.430105   
     16. A(C   0,C   1,C   2)          119.9996         0.430101   
     17. A(C   0,C   1,H   3)          120.0006         0.353066   
     18. A(C   2,C   1,H   3)          119.9998         0.353066   
     19. A(C   8,C   2,H   9)          120.0000         0.353065   
     20. A(C   1,C   2,H   9)          120.0001         0.353065   
     21. A(C   1,C   2,C   8)          120.0000         0.430102   
     22. A(C   0,C   4,C   6)          120.0001         0.430105   
     23. A(C   6,C   4,H   7)          120.0001         0.353065   
     24. A(C   0,C   4,H   7)          119.9998         0.353068   
     25. A(C   4,C   6,H  10)          120.0000         0.353064   
     26. A(C   4,C   6,C   8)          120.0000         0.430104   
     27. A(C   8,C   6,H  10)          119.9999         0.353066   
     28. A(C   2,C   8,C   6)          120.0000         0.430104   
     29. A(C   6,C   8,H  11)          120.0001         0.353068   
     30. A(C   2,C   8,H  11)          119.9998         0.353066   
     31. D(H   3,C   1,C   0,C   4)    180.0000         0.025200   
     32. D(H   3,C   1,C   0,H   5)      0.0000         0.025200   
     33. D(C   2,C   1,C   0,H   5)    180.0000         0.025200   
     34. D(C   2,C   1,C   0,C   4)      0.0000         0.025200   
     35. D(H   9,C   2,C   1,C   0)    180.0000         0.025201   
     36. D(C   8,C   2,C   1,C   0)      0.0000         0.025201   
     37. D(C   8,C   2,C   1,H   3)    180.0000         0.025201   
     38. D(H   9,C   2,C   1,H   3)      0.0000         0.025201   
     39. D(H   7,C   4,C   0,H   5)      0.0000         0.025203   
     40. D(H   7,C   4,C   0,C   1)    180.0000         0.025203   
     41. D(C   6,C   4,C   0,H   5)    180.0000         0.025203   
     42. D(C   6,C   4,C   0,C   1)      0.0000         0.025203   
     43. D(H  10,C   6,C   4,C   0)    180.0000         0.025201   
     44. D(C   8,C   6,C   4,H   7)    180.0000         0.025201   
     45. D(C   8,C   6,C   4,C   0)      0.0000         0.025201   
     46. D(H  10,C   6,C   4,H   7)      0.0000         0.025201   
     47. D(H  11,C   8,C   6,H  10)      0.0000         0.025202   
     48. D(C   2,C   8,C   6,H  10)    180.0000         0.025202   
     49. D(C   2,C   8,C   6,C   4)      0.0000         0.025202   
     50. D(H  11,C   8,C   2,H   9)      0.0000         0.025201   
     51. D(H  11,C   8,C   2,C   1)    180.0000         0.025201   
     52. D(H  11,C   8,C   6,C   4)    180.0000         0.025202   
     53. D(C   6,C   8,C   2,H   9)    180.0000         0.025201   
     54. D(C   6,C   8,C   2,C   1)      0.0000         0.025201   
    -----------------------------------------------------------------

Number of atoms                         .... 12
Number of degrees of freedom            .... 54

         *************************************************************
         *                GEOMETRY OPTIMIZATION CYCLE   1            *
         *************************************************************
---------------------------------
CARTESIAN COORDINATES (ANGSTROEM)
---------------------------------
  C     -6.435080    0.469880    0.000000
  C     -5.038180    0.547370   -0.000000
  C     -4.272630   -0.623640   -0.000000
  H     -4.549750    1.513230   -0.000000
  C     -7.066420   -0.778600    0.000000
  H     -7.027320    1.375810    0.000000
  C     -6.300870   -1.949610    0.000000
  H     -8.147100   -0.838540    0.000000
  C     -4.903980   -1.872130    0.000000
  H     -3.191950   -0.563700   -0.000000
  H     -6.789300   -2.915480    0.000000
  H     -4.311730   -2.778050    0.000000

----------------------------
CARTESIAN COORDINATES (A.U.)
----------------------------
  NO LB      ZA    FRAG     MASS         X           Y           Z
   0 C     6.0000    0    12.011  -12.160539    0.887945    0.000000
   1 C     6.0000    0    12.011   -9.520780    1.034379   -0.000000
   2 C     6.0000    0    12.011   -8.074101   -1.178509   -0.000000
   3 H     1.0000    0     1.008   -8.597781    2.859590   -0.000000
   4 C     6.0000    0    12.011  -13.353599   -1.471341    0.000000
   5 H     1.0000    0     1.008  -13.279710    2.599904    0.000000
   6 C     6.0000    0    12.011  -11.906919   -3.684229    0.000000
   7 H     1.0000    0     1.008  -15.395788   -1.584611    0.000000
   8 C     6.0000    0    12.011   -9.267179   -3.537813    0.000000
   9 H     1.0000    0     1.008   -6.031911   -1.065239   -0.000000
  10 H     1.0000    0     1.008  -12.829918   -5.509459    0.000000
  11 H     1.0000    0     1.008   -8.147989   -5.249754    0.000000

--------------------------------
INTERNAL COORDINATES (ANGSTROEM)
--------------------------------
 C      0   0   0     0.000000000000     0.00000000     0.00000000
 C      1   0   0     1.399047643971     0.00000000     0.00000000
 C      2   1   0     1.399046540541   119.99962302     0.00000000
 H      2   1   3     1.082335162738   120.00057361   180.00000000
 C      1   2   3     1.399032703692   120.00023178     0.00000000
 H      1   2   3     1.082338848282   119.99902710   180.00000000
 C      5   1   2     1.399046540541   120.00014520     0.00000000
 H      5   1   2     1.082341011881   119.99978881   180.00000000
 C      7   5   1     1.399037105476   120.00000924     0.00000000
 H      3   2   1     1.082341011881   120.00006599   180.00000000
 H      7   5   1     1.082344086601   120.00004226   180.00000000
 H      9   7   5     1.082335950110   120.00014608   180.00000121

---------------------------
INTERNAL COORDINATES (A.U.)
---------------------------
 C      0   0   0     0.000000000000     0.00000000     0.00000000
 C      1   0   0     2.643816895412     0.00000000     0.00000000
 C      2   1   0     2.643814810233   119.99962302     0.00000000
 H      2   1   3     2.045317042689   120.00057361   180.00000000
 C      1   2   3     2.643788662377   120.00023178     0.00000000
 H      1   2   3     2.045324007356   119.99902710   180.00000000
 C      5   1   2     2.643814810233   120.00014520     0.00000000
 H      5   1   2     2.045328095967   119.99978881   180.00000000
 C      7   5   1     2.643796980544   120.00000924     0.00000000
 H      3   2   1     2.045328095967   120.00006599   180.00000000
 H      7   5   1     2.045333906345   120.00004226   180.00000000
 H      9   7   5     2.045318530605   120.00014608   180.00000121

---------------------
BASIS SET INFORMATION
---------------------
There are 2 groups of distinct atoms

 Group   1 Type C   : 12s6p1d contracted to 5s4p1d pattern {63111/3111/1}
 Group   2 Type H   : 5s1p contracted to 3s1p pattern {311/1}

Atom   0C    basis set group =>   1
Atom   1C    basis set group =>   1
Atom   2C    basis set group =>   1
Atom   3H    basis set group =>   2
Atom   4C    basis set group =>   1
Atom   5H    basis set group =>   2
Atom   6C    basis set group =>   1
Atom   7H    basis set group =>   2
Atom   8C    basis set group =>   1
Atom   9H    basis set group =>   2
Atom  10H    basis set group =>   2
Atom  11H    basis set group =>   2

-------------------------
BASIS SET IN INPUT FORMAT
-------------------------

 # Basis set for element : H 
 NewGTO H 
 S 3 
   1      33.8650000000      0.0254938145
   2       5.0947900000      0.1903731086
   3       1.1587900000      0.8521614860
 S 1 
   1       0.3258400000      1.0000000000
 S 1 
   1       0.1027410000      1.0000000000
 P 1 
   1       0.7500000000      1.0000000000
  end;

 # Basis set for element : C 
 NewGTO C 
 S 6 
   1    4563.2400000000      0.0019666502
   2     682.0240000000      0.0152306019
   3     154.9730000000      0.0761269097
   4      44.4553000000      0.2608010331
   5      13.0290000000      0.6164620782
   6       1.8277300000      0.2210060280
 S 3 
   1      20.9642000000      0.1146600807
   2       4.8033100000      0.9199996477
   3       1.4593300000     -0.0030306821
 P 3 
   1      20.9642000000      0.0402486927
   2       4.8033100000      0.2375939567
   3       1.4593300000      0.8158538515
 S 1 
   1       0.4834560000      1.0000000000
 P 1 
   1       0.4834560000      1.0000000000
 S 1 
   1       0.1455850000      1.0000000000
 P 1 
   1       0.1455850000      1.0000000000
 S 1 
   1       0.0438000000      1.0000000000
 P 1 
   1       0.0438000000      1.0000000000
 D 1 
   1       0.6260000000      1.0000000000
  end;

---------------------------------
AUXILIARY/J BASIS SET INFORMATION
---------------------------------
There are 2 groups of distinct atoms

 Group   1 Type C   : 12s5p4d2f1g contracted to 6s4p3d1f1g pattern {711111/2111/211/2/1}
 Group   2 Type H   : 5s2p1d contracted to 3s1p1d pattern {311/2/1}

Atom   0C    basis set group =>   1
Atom   1C    basis set group =>   1
Atom   2C    basis set group =>   1
Atom   3H    basis set group =>   2
Atom   4C    basis set group =>   1
Atom   5H    basis set group =>   2
Atom   6C    basis set group =>   1
Atom   7H    basis set group =>   2
Atom   8C    basis set group =>   1
Atom   9H    basis set group =>   2
Atom  10H    basis set group =>   2
Atom  11H    basis set group =>   2

-------------------------------------
AUXILIARY/J BASIS SET IN INPUT FORMAT
-------------------------------------

 # Auxiliary/J basis set for element : H 
 NewAuxJGTO H 
 S 3 
   1      15.6752927000      0.1007184237
   2       3.6063578000      0.3404257499
   3       1.2080016000      0.6491996172
 S 1 
   1       0.4726794000      1.0000000000
 S 1 
   1       0.2018100000      1.0000000000
 P 2 
   1       2.0281365000      0.5596620919
   2       0.5358730000      0.5596620919
 D 1 
   1       2.2165124000      1.0000000000
  end;

 # Auxiliary/J basis set for element : C 
 NewAuxJGTO C 
 S 7 
   1    1861.0916331000      0.0134602335
   2     642.9939764000      0.0299160374
   3     235.1105725000      0.1008649584
   4      90.7028894000      0.2370970548
   5      36.7794552000      0.3924037254
   6      15.6046273000      0.3195862154
   7       6.8907294000      0.0530104441
 S 1 
   1       3.1478850000     -1.0000000000
 S 1 
   1       1.4777287000      1.0000000000
 S 1 
   1       0.7076466000      1.0000000000
 S 1 
   1       0.3430122000      1.0000000000
 S 1 
   1       0.1669453000      1.0000000000
 P 2 
   1      13.5472892000     -0.6769313712
   2       5.4669419000     -0.3779500978
 P 1 
   1       2.1751721000      1.0000000000
 P 1 
   1       0.8582194000      1.0000000000
 P 1 
   1       0.3376720000      1.0000000000
 D 2 
   1       5.9287253000     -0.3533329857
   2       1.9809209000     -0.7456525731
 D 1 
   1       0.8055417000     -1.0000000000
 D 1 
   1       0.3531244000     -1.0000000000
 F 2 
   1       1.6755626000      0.6311076882
   2       0.5997536000      0.4968166032
 G 1 
   1       1.0024600000     -1.0000000000
  end;

------------------------------------------------------------------------------
                           ORCA GTO INTEGRAL CALCULATION
                           -- RI-GTO INTEGRALS CHOSEN --
------------------------------------------------------------------------------

                         BASIS SET STATISTICS AND STARTUP INFO

Gaussian basis set:
 # of primitive gaussian shells          ...  150
 # of primitive gaussian functions       ...  258
 # of contracted shells                  ...   84
 # of contracted basis functions         ...  168
 Highest angular momentum                ...    2
 Maximum contraction depth               ...    6
Auxiliary gaussian basis set:
 # of primitive gaussian shells          ...  192
 # of primitive gaussian functions       ...  516
 # of contracted shells                  ...  120
 # of contracted aux-basis functions     ...  360
 Highest angular momentum                ...    4
 Maximum contraction depth               ...    7
Ratio of auxiliary to basis functions    ...  2.14
Integral package used                  ... LIBINT
 One Electron integrals                  ... done
 Ordering auxiliary basis shells         ... done
 Integral threshhold             Thresh  ...  2.500e-11
 Primitive cut-off               TCut    ...  2.500e-12
 Pre-screening matrix                    ... done
 Shell pair data                         ... 
 Ordering of the shell pairs             ... done (   0.001 sec) 3474 of 3570 pairs
 Determination of significant pairs      ... done (   0.000 sec)
 Creation of shell pair data             ... done (   0.001 sec)
 Storage of shell pair data              ... done (   0.017 sec)
 Shell pair data done in (   0.019 sec)
 Computing two index integrals           ... done
 Cholesky decomposition of the V-matrix  ... done


Timings:
 Total evaluation time                   ...   0.317 sec (  0.005 min)
 One electron matrix time                ...   0.031 sec (  0.001 min) =  9.9%
 Schwartz matrix evaluation time         ...   0.123 sec (  0.002 min) = 38.8%
 Two index repulsion integral time       ...   0.019 sec (  0.000 min) =  6.0%
 Cholesky decomposition of V             ...   0.097 sec (  0.002 min) = 30.7%
 Three index repulsion integral time     ...   0.000 sec (  0.000 min) =  0.0%

-------------------------------------------------------------------------------
                                 ORCA SCF
-------------------------------------------------------------------------------

------------
SCF SETTINGS
------------
Hamiltonian:
 Density Functional     Method          .... DFT(GTOs)
 Exchange Functional    Exchange        .... Slater
   X-Alpha parameter    XAlpha          ....  0.666667
 Correlation Functional Correlation     .... VWN-5
 Gradients option       PostSCFGGA      .... off
   Density functional embedding theory  .... OFF
 RI-approximation to the Coulomb term is turned on
   Number of auxiliary basis functions  .... 360


General Settings:
 Integral files         IntName         .... ben
 Hartree-Fock type      HFTyp           .... RHF
 Total Charge           Charge          ....    0
 Multiplicity           Mult            ....    1
 Number of Electrons    NEL             ....   42
 Basis Dimension        Dim             ....  168
 Nuclear Repulsion      ENuc            ....    203.0193512800 Eh

Convergence Acceleration:
 DIIS                   CNVDIIS         .... on
   Start iteration      DIISMaxIt       ....    12
   Startup error        DIISStart       ....  0.200000
   # of expansion vecs  DIISMaxEq       ....     5
   Bias factor          DIISBfac        ....   1.050
   Max. coefficient     DIISMaxC        ....  10.000
 Newton-Raphson         CNVNR           .... off
 SOSCF                  CNVSOSCF        .... on
   Start iteration      SOSCFMaxIt      ....   150
   Startup grad/error   SOSCFStart      ....  0.003300
 Level Shifting         CNVShift        .... on
   Level shift para.    LevelShift      ....    0.2500
   Turn off err/grad.   ShiftErr        ....    0.0010
 Zerner damping         CNVZerner       .... off
 Static damping         CNVDamp         .... on
   Fraction old density DampFac         ....    0.7000
   Max. Damping (<1)    DampMax         ....    0.9800
   Min. Damping (>=0)   DampMin         ....    0.0000
   Turn off err/grad.   DampErr         ....    0.1000
 Fernandez-Rico         CNVRico         .... off

SCF Procedure:
 Maximum # iterations   MaxIter         ....   125
 SCF integral mode      SCFMode         .... Direct
   Integral package                     .... LIBINT
 Reset frequency        DirectResetFreq ....    20
 Integral Threshold     Thresh          ....  2.500e-11 Eh
 Primitive CutOff       TCut            ....  2.500e-12 Eh

Convergence Tolerance:
 Convergence Check Mode ConvCheckMode   .... Total+1el-Energy
 Convergence forced     ConvForced      .... 0
 Energy Change          TolE            ....  1.000e-08 Eh
 1-El. energy change                    ....  1.000e-05 Eh
 Orbital Gradient       TolG            ....  1.000e-05
 Orbital Rotation angle TolX            ....  1.000e-05
 DIIS Error             TolErr          ....  5.000e-07


Diagonalization of the overlap matrix:
Smallest eigenvalue                        ... 4.267e-06
Time for diagonalization                   ...    0.155 sec
Threshold for overlap eigenvalues          ... 1.000e-08
Number of eigenvalues below threshold      ... 0
Time for construction of square roots      ...    0.015 sec
Total time needed                          ...    0.171 sec

-------------------
DFT GRID GENERATION
-------------------

General Integration Accuracy     IntAcc      ...  4.340
Radial Grid Type                 RadialGrid  ... Gauss-Chebyshev
Angular Grid (max. acc.)         AngularGrid ... Lebedev-110
Angular grid pruning method      GridPruning ... 3 (G Style)
Weight generation scheme         WeightScheme... Becke
Basis function cutoff            BFCut       ...    1.0000e-11
Integration weight cutoff        WCut        ...    1.0000e-14
Grids for H and He will be reduced by one unit

# of grid points (after initial pruning)     ...  14700 (   0.0 sec)
# of grid points (after weights+screening)   ...  13762 (   0.0 sec)
nearest neighbour list constructed           ...    0.0 sec
Grid point re-assignment to atoms done       ...    0.0 sec
Grid point division into batches done        ...    0.0 sec
Reduced shell lists constructed in    0.2 sec

Total number of grid points                  ...    13762
Total number of batches                      ...      220
Average number of points per batch           ...       62
Average number of grid points per atom       ...     1147
Average number of shells per batch           ...    66.84 (79.57%)
Average number of basis functions per batch  ...   136.77 (81.41%)
Average number of large shells per batch     ...    55.16 (82.52%)
Average number of large basis fcns per batch ...   114.04 (83.38%)
Maximum spatial batch extension              ...  17.12, 20.35, 27.00 au
Average spatial batch extension              ...   3.70,  4.02,  5.53 au

Time for grid setup =    0.217 sec

------------------------------
INITIAL GUESS: MODEL POTENTIAL
------------------------------
Loading Hartree-Fock densities                     ... done
Calculating cut-offs                               ... done
Setting up the integral package                    ... done
Initializing the effective Hamiltonian             ... done
Starting the Coulomb interaction                   ... done (   0.1 sec)
Reading the grid                                   ... done
Mapping shells                                     ... done
Starting the XC term evaluation                    ... done (   0.2 sec)
  promolecular density results
     # of electrons  =     42.003603288
     EX              =    -29.339334535
     EC              =     -2.641632450
     EX+EC           =    -31.980966984
Transforming the Hamiltonian                       ... done (   0.0 sec)
Diagonalizing the Hamiltonian                      ... done (   0.0 sec)
Back transforming the eigenvectors                 ... done (   0.0 sec)
Now organizing SCF variables                       ... done
                      ------------------
                      INITIAL GUESS DONE (   0.6 sec)
                      ------------------
--------------
SCF ITERATIONS
--------------
               ***  Starting incremental Fock matrix formation  ***

                         ----------------------------
                         !        ITERATION     0   !
                         ----------------------------
   Total Energy        :    -230.007402905030 Eh
   Energy Change       :    -230.007402905030 Eh
   MAX-DP              :       0.041133137837
   RMS-DP              :       0.001464150922
   Actual Damping      :       0.7000
   Actual Level Shift  :       0.2500 Eh
   Int. Num. El.       :    42.00246334 (UP=   21.00123167 DN=   21.00123167)
   Exchange            :   -30.33564492
   Correlation         :    -2.70544622


                         ----------------------------
                         !        ITERATION     1   !
                         ----------------------------
   Total Energy        :    -230.078368488002 Eh
   Energy Change       :      -0.070965582972 Eh
   MAX-DP              :       0.024606477101
   RMS-DP              :       0.001062527186
   Actual Damping      :       0.7000
   Actual Level Shift  :       0.2500 Eh
   Int. Num. El.       :    42.00394094 (UP=   21.00197047 DN=   21.00197047)
   Exchange            :   -30.08639984
   Correlation         :    -2.69129502

                               ***Turning on DIIS***

                         ----------------------------
                         !        ITERATION     2   !
                         ----------------------------
   Total Energy        :    -230.104078553706 Eh
   Energy Change       :      -0.025710065704 Eh
   MAX-DP              :       0.031245680447
   RMS-DP              :       0.001842866665
   Actual Damping      :       0.0000
   Actual Level Shift  :       0.2500 Eh
   Int. Num. El.       :    42.00523034 (UP=   21.00261517 DN=   21.00261517)
   Exchange            :   -29.91807752
   Correlation         :    -2.68138727
   DIIS-Error          :       0.022570529010


                         ----------------------------
                         !        ITERATION     3   !
                         ----------------------------
   Total Energy        :    -230.139334052383 Eh
   Energy Change       :      -0.035255498677 Eh
   MAX-DP              :       0.016149986365
   RMS-DP              :       0.000790508382
   Actual Damping      :       0.0000
   Actual Level Shift  :       0.2500 Eh
   Int. Num. El.       :    42.00751325 (UP=   21.00375662 DN=   21.00375662)
   Exchange            :   -29.68828745
   Correlation         :    -2.66738319
   DIIS-Error          :       0.044267642357
   DIIS coefficients:
      0.64081   0.35919


                         ----------------------------
                         !        ITERATION     4   !
                         ----------------------------
   Total Energy        :    -230.152247854286 Eh
   Energy Change       :      -0.012913801903 Eh
   MAX-DP              :       0.006226044348
   RMS-DP              :       0.000371693334
   Actual Damping      :       0.0000
   Actual Level Shift  :       0.2500 Eh
   Int. Num. El.       :    42.00673491 (UP=   21.00336745 DN=   21.00336745)
   Exchange            :   -29.80036345
   Correlation         :    -2.67382175
   DIIS-Error          :       0.008599569668
   DIIS coefficients:
      0.22904  -0.01695   0.78791

                      *** Initiating the SOSCF procedure ***
                           *** Shutting down DIIS ***
                      *** Re-Reading the Fockian *** 
                      *** Removing any level shift *** 

                         ----------------------------
                         !        ITERATION     5   !
                         ----------------------------
   Total Energy        :    -230.152846031991 Eh
   Energy Change       :      -0.000598177705 Eh
   MAX-DP              :       0.002889112038
   RMS-DP              :       0.000156678527
   Orbital gradient    :       0.000790075447
   Orbital Rotation    :       0.000790075447
   Actual Damping      :       0.0000
   Int. Num. El.       :    42.00644161 (UP=   21.00322080 DN=   21.00322080)
   Exchange            :   -29.82421503
   Correlation         :    -2.67537217

               *** Restarting incremental Fock matrix formation ***

                         ----------------------------
                         !        ITERATION     6   !
                         ----------------------------
   Total Energy        :    -230.152887302605 Eh
   Energy Change       :      -0.000041270613 Eh
   MAX-DP              :       0.001937563624
   RMS-DP              :       0.000108847596
   Orbital gradient    :       0.000405812488
   Orbital Rotation    :       0.001274765373
   Actual Damping      :       0.0000
   Int. Num. El.       :    42.00634112 (UP=   21.00317056 DN=   21.00317056)
   Exchange            :   -29.83005970
   Correlation         :    -2.67578471


                         ----------------------------
                         !        ITERATION     7   !
                         ----------------------------
   Total Energy        :    -230.152889581201 Eh
   Energy Change       :      -0.000002278596 Eh
   MAX-DP              :       0.000370162823
   RMS-DP              :       0.000018790335
   Orbital gradient    :       0.000281194741
   Orbital Rotation    :       0.000219659465
   Actual Damping      :       0.0000
   Int. Num. El.       :    42.00626599 (UP=   21.00313300 DN=   21.00313300)
   Exchange            :   -29.83418130
   Correlation         :    -2.67606553


                         ----------------------------
                         !        ITERATION     8   !
                         ----------------------------
   Total Energy        :    -230.152891881806 Eh
   Energy Change       :      -0.000002300605 Eh
   MAX-DP              :       0.000476601938
   RMS-DP              :       0.000025269538
   Orbital gradient    :       0.000108755634
   Orbital Rotation    :       0.000144645515
   Actual Damping      :       0.0000
   Int. Num. El.       :    42.00627445 (UP=   21.00313722 DN=   21.00313722)
   Exchange            :   -29.83206802
   Correlation         :    -2.67595020


                         ----------------------------
                         !        ITERATION     9   !
                         ----------------------------
   Total Energy        :    -230.152892109625 Eh
   Energy Change       :      -0.000000227819 Eh
   MAX-DP              :       0.000080876037
   RMS-DP              :       0.000004316972
   Orbital gradient    :       0.000047942920
   Orbital Rotation    :       0.000036008826
   Actual Damping      :       0.0000
   Int. Num. El.       :    42.00628459 (UP=   21.00314230 DN=   21.00314230)
   Exchange            :   -29.83197851
   Correlation         :    -2.67593526


                         ----------------------------
                         !        ITERATION    10   !
                         ----------------------------
   Total Energy        :    -230.152892166723 Eh
   Energy Change       :      -0.000000057098 Eh
   MAX-DP              :       0.000035612186
   RMS-DP              :       0.000002007495
   Orbital gradient    :       0.000006457690
   Orbital Rotation    :       0.000012903851
   Actual Damping      :       0.0000
   Int. Num. El.       :    42.00628158 (UP=   21.00314079 DN=   21.00314079)
   Exchange            :   -29.83218359
   Correlation         :    -2.67594829


                         ----------------------------
                         !        ITERATION    11   !
                         ----------------------------
   Total Energy        :    -230.152892171742 Eh
   Energy Change       :      -0.000000005019 Eh
   MAX-DP              :       0.000011116119
   RMS-DP              :       0.000000403127
   Orbital gradient    :       0.000006886861
   Orbital Rotation    :       0.000012218873
   Actual Damping      :       0.0000
   Int. Num. El.       :    42.00628114 (UP=   21.00314057 DN=   21.00314057)
   Exchange            :   -29.83215573
   Correlation         :    -2.67594755


                         ----------------------------
                         !        ITERATION    12   !
                         ----------------------------
   Total Energy        :    -230.152892174687 Eh
   Energy Change       :      -0.000000002945 Eh
   MAX-DP              :       0.000015728523
   RMS-DP              :       0.000000874885
   Orbital gradient    :       0.000003499124
   Orbital Rotation    :       0.000005069030
   Actual Damping      :       0.0000
   Int. Num. El.       :    42.00628120 (UP=   21.00314060 DN=   21.00314060)
   Exchange            :   -29.83214666
   Correlation         :    -2.67594702

                 **** Energy Check signals convergence ****
              ***Rediagonalizing the Fockian in SOSCF/NRSCF***

               *****************************************************
               *                     SUCCESS                       *
               *           SCF CONVERGED AFTER  13 CYCLES          *
               *****************************************************

Setting up the final grid:

General Integration Accuracy     IntAcc      ...  4.670
Radial Grid Type                 RadialGrid  ... Gauss-Chebyshev
Angular Grid (max. acc.)         AngularGrid ... Lebedev-302
Angular grid pruning method      GridPruning ... 3 (G Style)
Weight generation scheme         WeightScheme... Becke
Basis function cutoff            BFCut       ...    1.0000e-11
Integration weight cutoff        WCut        ...    1.0000e-14
Grids for H and He will be reduced by one unit

# of grid points (after initial pruning)     ...  57636 (   0.0 sec)
# of grid points (after weights+screening)   ...  53408 (   0.1 sec)
nearest neighbour list constructed           ...    0.0 sec
Grid point re-assignment to atoms done       ...    0.0 sec
Grid point division into batches done        ...    0.2 sec
Reduced shell lists constructed in    0.8 sec

Total number of grid points                  ...    53408
Total number of batches                      ...      842
Average number of points per batch           ...       63
Average number of grid points per atom       ...     4451
Average number of shells per batch           ...    61.73 (73.48%)
Average number of basis functions per batch  ...   126.39 (75.23%)
Average number of large shells per batch     ...    50.19 (81.31%)
Average number of large basis fcns per batch ...   103.10 (81.58%)
Maximum spatial batch extension              ...  16.78, 16.05, 23.20 au
Average spatial batch extension              ...   2.58,  2.66,  3.04 au

Final grid set up in    1.0 sec
Final integration                            ... done (   0.9 sec)
Change in XC energy                          ...    -0.000114517
Integrated number of electrons               ...    41.999901174
Previous integrated no of electrons          ...    42.006281392

----------------
TOTAL SCF ENERGY
----------------

Total Energy       :         -230.15300669 Eh           -6262.78171 eV

Components:
Nuclear Repulsion  :          203.01935128 Eh            5524.43741 eV
Electronic Energy  :         -433.17235797 Eh          -11787.21911 eV
One Electron Energy:         -713.21157879 Eh          -19407.47372 eV
Two Electron Energy:          280.03922082 Eh            7620.25460 eV

Virial components:
Potential Energy   :         -458.78543855 Eh          -12484.18647 eV
Kinetic Energy     :          228.63243186 Eh            6221.40476 eV
Virial Ratio       :            2.00665074


DFT components:
N(Alpha)           :       20.999950586771 electrons
N(Beta)            :       20.999950586771 electrons
N(Total)           :       41.999901173542 electrons
E(X)               :      -29.832325737023 Eh       
E(C)               :       -2.675891726325 Eh       
E(XC)              :      -32.508217463348 Eh       
DFET-embed. en.    :        0.000000000000 Eh       

---------------
SCF CONVERGENCE
---------------

  Last Energy change         ...    3.6643e-09  Tolerance :   1.0000e-08
  Last MAX-Density change    ...    1.0706e-05  Tolerance :   1.0000e-07
  Last RMS-Density change    ...    3.7743e-07  Tolerance :   5.0000e-09
  Last Orbital Gradient      ...    1.4989e-06  Tolerance :   1.0000e-05
  Last Orbital Rotation      ...    5.2830e-06  Tolerance :   1.0000e-05

             **** THE GBW FILE WAS UPDATED (ben.gbw) ****
             **** DENSITY FILE WAS UPDATED (ben.scfp) ****
             **** ENERGY FILE WAS UPDATED (ben.en.tmp) ****
             **** THE GBW FILE WAS UPDATED (ben.gbw) ****
             **** DENSITY FILE WAS UPDATED (ben.scfp) ****
----------------
ORBITAL ENERGIES
----------------

  NO   OCC          E(Eh)            E(eV) 
   0   2.0000      -9.788110      -266.3480 
   1   2.0000      -9.788038      -266.3461 
   2   2.0000      -9.787947      -266.3436 
   3   2.0000      -9.787681      -266.3363 
   4   2.0000      -9.787602      -266.3342 
   5   2.0000      -9.787486      -266.3310 
   6   2.0000      -0.779076       -21.1997 
   7   2.0000      -0.676830       -18.4175 
   8   2.0000      -0.676760       -18.4156 
   9   2.0000      -0.546885       -14.8815 
  10   2.0000      -0.546791       -14.8789 
  11   2.0000      -0.479848       -13.0573 
  12   2.0000      -0.412489       -11.2244 
  13   2.0000      -0.408145       -11.1062 
  14   2.0000      -0.380619       -10.3572 
  15   2.0000      -0.380455       -10.3527 
  16   2.0000      -0.339691        -9.2435 
  17   2.0000      -0.307126        -8.3573 
  18   2.0000      -0.307097        -8.3565 
  19   2.0000      -0.239868        -6.5272 
  20   2.0000      -0.239842        -6.5264 
  21   0.0000      -0.053940        -1.4678 
  22   0.0000      -0.053536        -1.4568 
  23   0.0000      -0.007427        -0.2021 
  24   0.0000       0.015367         0.4182 
  25   0.0000       0.016452         0.4477 
  26   0.0000       0.037808         1.0288 
  27   0.0000       0.038296         1.0421 
  28   0.0000       0.050177         1.3654 
  29   0.0000       0.051049         1.3891 
  30   0.0000       0.074851         2.0368 
  31   0.0000       0.078436         2.1343 
  32   0.0000       0.080938         2.2024 
  33   0.0000       0.082511         2.2452 
  34   0.0000       0.088259         2.4017 
  35   0.0000       0.126094         3.4312 
  36   0.0000       0.127098         3.4585 
  37   0.0000       0.130473         3.5503 
  38   0.0000       0.133286         3.6269 
  39   0.0000       0.133521         3.6333 
  40   0.0000       0.135314         3.6821 
  41   0.0000       0.150906         4.1064 
  42   0.0000       0.174868         4.7584 
  43   0.0000       0.175662         4.7800 
  44   0.0000       0.185263         5.0413 
  45   0.0000       0.190563         5.1855 
  46   0.0000       0.192476         5.2375 
  47   0.0000       0.197357         5.3704 
  48   0.0000       0.198893         5.4122 
  49   0.0000       0.207989         5.6597 
  50   0.0000       0.212909         5.7936 
  51   0.0000       0.213082         5.7982 
  52   0.0000       0.267396         7.2762 
  53   0.0000       0.269309         7.3283 
  54   0.0000       0.282398         7.6844 
  55   0.0000       0.284252         7.7349 
  56   0.0000       0.284882         7.7520 
  57   0.0000       0.285087         7.7576 
  58   0.0000       0.375424        10.2158 
  59   0.0000       0.411240        11.1904 
  60   0.0000       0.467183        12.7127 
  61   0.0000       0.484442        13.1823 
  62   0.0000       0.488468        13.2919 
  63   0.0000       0.489520        13.3205 
  64   0.0000       0.490422        13.3451 
  65   0.0000       0.508466        13.8361 
  66   0.0000       0.509824        13.8730 
  67   0.0000       0.530223        14.4281 
  68   0.0000       0.531071        14.4512 
  69   0.0000       0.552121        15.0240 
  70   0.0000       0.567725        15.4486 
  71   0.0000       0.570045        15.5117 
  72   0.0000       0.620607        16.8876 
  73   0.0000       0.640080        17.4175 
  74   0.0000       0.642113        17.4728 
  75   0.0000       0.668938        18.2027 
  76   0.0000       0.670885        18.2557 
  77   0.0000       0.676452        18.4072 
  78   0.0000       0.733464        19.9586 
  79   0.0000       0.778573        21.1860 
  80   0.0000       0.779327        21.2066 
  81   0.0000       0.779420        21.2091 
  82   0.0000       0.780977        21.2515 
  83   0.0000       0.803441        21.8627 
  84   0.0000       0.804554        21.8930 
  85   0.0000       0.806607        21.9489 
  86   0.0000       0.811264        22.0756 
  87   0.0000       0.880338        23.9552 
  88   0.0000       0.950465        25.8635 
  89   0.0000       0.966863        26.3097 
  90   0.0000       0.969415        26.3791 
  91   0.0000       1.015704        27.6387 
  92   0.0000       1.015729        27.6394 
  93   0.0000       1.074637        29.2424 
  94   0.0000       1.074785        29.2464 
  95   0.0000       1.220124        33.2012 
  96   0.0000       1.254487        34.1363 
  97   0.0000       1.392990        37.9052 
  98   0.0000       1.427337        38.8398 
  99   0.0000       1.427658        38.8485 
 100   0.0000       1.432279        38.9743 
 101   0.0000       1.501043        40.8455 
 102   0.0000       1.501333        40.8534 
 103   0.0000       1.501595        40.8605 
 104   0.0000       1.571669        42.7673 
 105   0.0000       1.572990        42.8032 
 106   0.0000       1.592339        43.3298 
 107   0.0000       1.593197        43.3531 
 108   0.0000       1.650470        44.9116 
 109   0.0000       1.705763        46.4162 
 110   0.0000       1.705874        46.4192 
 111   0.0000       1.736200        47.2444 
 112   0.0000       1.736365        47.2489 
 113   0.0000       1.779353        48.4187 
 114   0.0000       1.844446        50.1899 
 115   0.0000       1.845194        50.2103 
 116   0.0000       1.865747        50.7695 
 117   0.0000       1.867590        50.8197 
 118   0.0000       1.894268        51.5457 
 119   0.0000       1.903175        51.7880 
 120   0.0000       1.934907        52.6515 
 121   0.0000       1.935513        52.6680 
 122   0.0000       2.005701        54.5779 
 123   0.0000       2.006012        54.5864 
 124   0.0000       2.241967        61.0070 
 125   0.0000       2.254681        61.3530 
 126   0.0000       2.300990        62.6131 
 127   0.0000       2.321310        63.1661 
 128   0.0000       2.321403        63.1686 
 129   0.0000       2.323851        63.2352 
 130   0.0000       2.324584        63.2551 
 131   0.0000       2.535439        68.9928 
 132   0.0000       2.535512        68.9948 
 133   0.0000       2.550402        69.4000 
 134   0.0000       2.570578        69.9490 
 135   0.0000       2.594340        70.5956 
 136   0.0000       2.643421        71.9311 
 137   0.0000       2.643769        71.9406 
 138   0.0000       2.679750        72.9197 
 139   0.0000       2.680357        72.9362 
 140   0.0000       2.693617        73.2971 
 141   0.0000       2.693865        73.3038 
 142   0.0000       2.694766        73.3283 
 143   0.0000       2.786980        75.8376 
 144   0.0000       2.787809        75.8601 
 145   0.0000       2.819245        76.7156 
 146   0.0000       2.839145        77.2571 
 147   0.0000       2.839566        77.2685 
 148   0.0000       2.973449        80.9117 
 149   0.0000       2.989237        81.3413 
 150   0.0000       3.230900        87.9173 
 151   0.0000       3.231307        87.9283 
 152   0.0000       3.381205        92.0073 
 153   0.0000       3.381869        92.0253 
 154   0.0000       3.399398        92.5023 
 155   0.0000       3.582132        97.4748 
 156   0.0000       3.895884       106.0124 
 157   0.0000       3.896326       106.0244 
 158   0.0000       3.986188       108.4697 
 159   0.0000       4.055002       110.3422 
 160   0.0000       4.055962       110.3683 
 161   0.0000       4.734700       128.8377 
 162   0.0000      23.498146       639.4171 
 163   0.0000      23.862840       649.3409 
 164   0.0000      23.862998       649.3452 
 165   0.0000      23.985489       652.6783 
 166   0.0000      23.985661       652.6830 
 167   0.0000      24.092428       655.5883 
------------------
MOLECULAR ORBITALS
------------------
                      0         1         2         3         4         5   
                  -9.78811  -9.78804  -9.78795  -9.78768  -9.78760  -9.78749
                   2.00000   2.00000   2.00000   2.00000   2.00000   2.00000
                  --------  --------  --------  --------  --------  --------
  0C   1s        -0.198936 -0.101498  0.281822  0.154300 -0.302755  0.250071
  0C   2s        -0.168681 -0.085903  0.238487  0.130526 -0.256000  0.211324
  0C   1pz       -0.000000 -0.000000  0.000000 -0.000000  0.000000 -0.000000
  0C   1px       -0.000161  0.000889  0.000504  0.000591  0.000483 -0.000300
  0C   1py        0.000508  0.000665  0.000184  0.000508 -0.000142  0.000256
  0C   3s        -0.009724 -0.005587  0.015564  0.008265 -0.016428  0.014701
  0C   2pz        0.000000  0.000000  0.000000  0.000000 -0.000000  0.000000
  0C   2px        0.001149 -0.004335 -0.002207 -0.002299 -0.001844  0.001034
  0C   2py       -0.002828 -0.002936 -0.001150 -0.001823  0.000561 -0.000647
  0C   4s         0.004477 -0.000622 -0.006511 -0.005745  0.011005 -0.039324
  0C   3pz       -0.000000 -0.000000 -0.000000 -0.000000  0.000000 -0.000000
  0C   3px       -0.000507  0.000621  0.000166 -0.000699  0.003687 -0.013067
  0C   3py        0.001129  0.002300  0.001286  0.002837 -0.004885  0.019669
  0C   5s         0.002309 -0.008224  0.011711  0.008016 -0.021135 -0.030431
  0C   4pz        0.000000  0.000000  0.000000  0.000000 -0.000000  0.000000
  0C   4px       -0.000987 -0.003554  0.001001 -0.000727 -0.003097 -0.003449
  0C   4py        0.000844  0.000444 -0.003887 -0.002683  0.003139  0.005763
  0C   1dz2       0.000241  0.000224 -0.000871 -0.000932  0.002105 -0.001912
  0C   1dxz      -0.000000  0.000000  0.000000  0.000000 -0.000000  0.000000
  0C   1dyz      -0.000000  0.000000  0.000000  0.000000 -0.000000  0.000000
  0C   1dx2y2     0.000341 -0.002475 -0.001371 -0.001388 -0.000843  0.000441
  0C   1dxy       0.001552  0.001273  0.000145  0.000685 -0.000297  0.000333
  1C   1s        -0.199848  0.167065  0.270385  0.223415  0.244152 -0.238378
  1C   2s        -0.169440  0.141413  0.228789  0.188965  0.206413 -0.201427
  1C   1pz       -0.000000  0.000000 -0.000000 -0.000000  0.000000 -0.000000
  1C   1px        0.000156  0.000842 -0.000661 -0.000506  0.000625 -0.000292
  1C   1py        0.000466 -0.000569  0.000240  0.000479  0.000093 -0.000289
  1C   3s        -0.009771  0.009101  0.015001  0.011999  0.013334 -0.014046
  1C   2pz       -0.000000 -0.000000  0.000000  0.000000 -0.000000  0.000000
  1C   2px       -0.001106 -0.004080  0.003018  0.001968 -0.002406  0.001059
  1C   2py       -0.002699  0.002477 -0.001352 -0.001734 -0.000445  0.000733
  1C   4s         0.004912 -0.001129 -0.008700 -0.007533 -0.009023  0.039038
  1C   3pz        0.000000  0.000000 -0.000000 -0.000000  0.000000 -0.000000
  1C   3px        0.000310  0.000837  0.000163  0.000940  0.002954 -0.010834
  1C   3py        0.000779 -0.001926  0.002811  0.003730  0.004404 -0.020956
  1C   5s         0.002166  0.009805  0.008084  0.014241  0.018242  0.030753
  1C   4pz       -0.000000 -0.000000 -0.000000  0.000000  0.000000  0.000000
  1C   4px        0.000723 -0.003575  0.000232  0.000197 -0.002866 -0.002812
  1C   4py        0.000979 -0.001565 -0.003356 -0.003582 -0.002600 -0.006252
  1C   1dz2       0.000302 -0.000409 -0.000908 -0.001425 -0.001774  0.001889
  1C   1dxz      -0.000000 -0.000000 -0.000000  0.000000 -0.000000  0.000000
  1C   1dyz       0.000000 -0.000000 -0.000000  0.000000  0.000000 -0.000000
  1C   1dx2y2     0.000795  0.001814 -0.001619 -0.000943  0.001204 -0.000564
  1C   1dxy      -0.001285  0.001793 -0.000757 -0.000986  0.000100  0.000217
  2C   1s        -0.253702  0.351200 -0.032188 -0.282493  0.035083  0.193725
  2C   2s        -0.214973  0.297167 -0.027226 -0.238789  0.029643  0.163643
  2C   1pz        0.000000 -0.000000 -0.000000  0.000000  0.000000 -0.000000
  2C   1px        0.000405 -0.000098 -0.000073 -0.000496  0.000034  0.000405
  2C   1py        0.000013  0.000096  0.001222  0.000097  0.000847  0.000053
  2C   3s        -0.012687  0.019474 -0.001821 -0.015515  0.001962  0.011576
  2C   2pz       -0.000000  0.000000  0.000000 -0.000000 -0.000000 -0.000000
  2C   2px       -0.002584  0.000242  0.000349  0.002095 -0.000180 -0.001161
  2C   2py       -0.000117 -0.000472 -0.005775 -0.000360 -0.003214 -0.000216
  2C   4s         0.006684 -0.013109  0.002143  0.010466 -0.001572 -0.037805
  2C   3pz       -0.000000 -0.000000 -0.000000  0.000000  0.000000 -0.000000
  2C   3px       -0.000196  0.004530 -0.001162 -0.006420  0.000995  0.023271
  2C   3py       -0.000020  0.000417  0.001907 -0.000197  0.001113  0.001343
  2C   5s        -0.002234  0.008124  0.000413 -0.022876  0.002936 -0.032307
  2C   4pz        0.000000  0.000000  0.000000 -0.000000 -0.000000  0.000000
  2C   4px        0.002068 -0.003161  0.000176  0.004408 -0.000393  0.007380
  2C   4py        0.000140 -0.000428 -0.003011 -0.000087 -0.002291  0.000330
  2C   1dz2       0.000701 -0.001243  0.000143  0.002151 -0.000297 -0.001746
  2C   1dxz       0.000000  0.000000 -0.000000 -0.000000  0.000000 -0.000000
  2C   1dyz      -0.000000 -0.000000  0.000000  0.000000 -0.000000  0.000000
  2C   1dx2y2    -0.001357  0.000410 -0.000352  0.000874 -0.000349 -0.000580
  2C   1dxy      -0.000165  0.000305  0.003049  0.000350  0.001664  0.000016
  3H   1s         0.000263  0.000014  0.000128  0.000199  0.000316 -0.000500
  3H   2s         0.003393 -0.001855 -0.003460 -0.002943 -0.003081  0.005438
  3H   3s        -0.004234  0.001850  0.001638  0.000693 -0.000088  0.003988
  3H   1pz       -0.000000 -0.000000  0.000000  0.000000 -0.000000  0.000000
  3H   1px       -0.000955  0.000408  0.000955  0.000705  0.000544 -0.000624
  3H   1py       -0.001904  0.001170  0.001636  0.001207  0.001219 -0.001281
  4C   1s        -0.282968 -0.330395  0.036751 -0.284548  0.032162 -0.186334
  4C   2s        -0.239736 -0.279535  0.031087 -0.240520  0.027174 -0.157395
  4C   1pz        0.000000  0.000000  0.000000  0.000000 -0.000000  0.000000
  4C   1px       -0.000412 -0.000058 -0.000075  0.000507 -0.000031  0.000392
  4C   1py        0.000005  0.000099  0.001232 -0.000084 -0.000833  0.000064
  4C   3s        -0.014314 -0.018439  0.002061 -0.015651  0.001792 -0.011169
  4C   2pz       -0.000000 -0.000000 -0.000000 -0.000000  0.000000 -0.000000
  4C   2px        0.002598 -0.000002  0.000347 -0.002124  0.000173 -0.001104
  4C   2py        0.000029 -0.000488 -0.005815  0.000300  0.003144 -0.000257
  4C   4s         0.007770  0.012578 -0.002293  0.011376 -0.001164  0.037521
  4C   3pz        0.000000  0.000000  0.000000  0.000000 -0.000000  0.000000
  4C   3px        0.000574  0.004557 -0.001222  0.007010 -0.000755  0.023094
  4C   3py        0.000071  0.000419  0.001917  0.000250 -0.001077  0.001348
  4C   5s        -0.002949 -0.008098 -0.000205 -0.021913  0.003230  0.032894
  4C   4pz       -0.000000 -0.000000 -0.000000 -0.000000  0.000000 -0.000000
  4C   4px       -0.002337 -0.003007  0.000231 -0.004175  0.000457  0.007493
  4C   4py       -0.000201 -0.000422 -0.003036  0.000070  0.002258  0.000304
  4C   1dz2       0.000805  0.001197 -0.000167  0.002187 -0.000277  0.001689
  4C   1dxz      -0.000000  0.000000  0.000000  0.000000 -0.000000  0.000000
  4C   1dyz      -0.000000  0.000000 -0.000000 -0.000000  0.000000 -0.000000
  4C   1dx2y2    -0.001384 -0.000282  0.000358  0.000896 -0.000340  0.000558
  4C   1dxy      -0.000216 -0.000292 -0.003070  0.000321  0.001628 -0.000043
  5H   1s         0.000277 -0.000016  0.000105  0.000119 -0.000347  0.000503
  5H   2s         0.003355  0.000959 -0.003411 -0.002120  0.003903 -0.005579
  5H   3s        -0.004362 -0.001156  0.002130  0.000581 -0.000264 -0.003892
  5H   1pz        0.000000  0.000000  0.000000 -0.000000  0.000000 -0.000000
  5H   1px        0.001156  0.000235 -0.001158 -0.000634  0.000920 -0.000811
  5H   1py       -0.001804 -0.000689  0.001616  0.000794 -0.001483  0.001273
  6C   1s        -0.215796 -0.148106 -0.273699  0.228510  0.242818  0.229596
  6C   2s        -0.182938 -0.125341 -0.231587  0.193268  0.205281  0.194000
  6C   1pz       -0.000000 -0.000000 -0.000000  0.000000  0.000000  0.000000
  6C   1px       -0.000087  0.000859 -0.000658  0.000485 -0.000632 -0.000299
  6C   1py       -0.000512 -0.000530  0.000250 -0.000480 -0.000095 -0.000275
  6C   3s        -0.010647 -0.008167 -0.015190  0.012303  0.013269  0.013572
  6C   2pz        0.000000  0.000000  0.000000 -0.000000 -0.000000 -0.000000
  6C   2px        0.000771 -0.004188  0.003002 -0.001874  0.002434  0.001088
  6C   2py        0.002892  0.002247 -0.001396  0.001720  0.000447  0.000682
  6C   4s         0.005074  0.000665  0.008843 -0.008527 -0.009315 -0.038722
  6C   3pz       -0.000000 -0.000000 -0.000000  0.000000  0.000000 -0.000000
  6C   3px       -0.000231  0.000864  0.000210 -0.001244 -0.003058 -0.010773
  6C   3py       -0.000913 -0.001867  0.002908 -0.004262 -0.004590 -0.020801
  6C   5s         0.001251 -0.009912 -0.008438  0.013386  0.017796 -0.031318
  6C   4pz        0.000000  0.000000  0.000000  0.000000 -0.000000  0.000000
  6C   4px       -0.001028 -0.003512  0.000210 -0.000243  0.002825 -0.002834
  6C   4py       -0.001136 -0.001454 -0.003411  0.003388  0.002492 -0.006375
  6C   1dz2       0.000344  0.000376  0.000939 -0.001470 -0.001781 -0.001831
  6C   1dxz       0.000000 -0.000000 -0.000000 -0.000000  0.000000 -0.000000
  6C   1dyz      -0.000000 -0.000000 -0.000000 -0.000000  0.000000 -0.000000
  6C   1dx2y2     0.000647 -0.001890  0.001608 -0.000895  0.001220  0.000577
  6C   1dxy      -0.001430 -0.001684  0.000777 -0.000969  0.000099 -0.000192
  7H   1s         0.000180 -0.000198  0.000031 -0.000421  0.000060 -0.000471
  7H   2s         0.004445  0.004328 -0.000557  0.003566 -0.000366  0.004789
  7H   3s        -0.004406 -0.001520  0.000031  0.000581 -0.000153  0.004288
  7H   1pz       -0.000000 -0.000000 -0.000000  0.000000 -0.000000 -0.000000
  7H   1px        0.002624  0.002256 -0.000237  0.001458 -0.000143  0.001070
  7H   1py        0.000141  0.000108 -0.000214  0.000095  0.000096  0.000053
  8C   1s        -0.191419  0.120943 -0.278294  0.143685 -0.307997 -0.251161
  8C   2s        -0.162317  0.102385 -0.235501  0.121551 -0.260434 -0.212248
  8C   1pz        0.000000 -0.000000  0.000000 -0.000000  0.000000 -0.000000
  8C   1px        0.000242  0.000869  0.000513 -0.000602 -0.000476 -0.000279
  8C   1py       -0.000447  0.000702  0.000191 -0.000505  0.000150  0.000268
  8C   3s        -0.009315  0.006548 -0.015379  0.007655 -0.016727 -0.014756
  8C   2pz       -0.000000  0.000000 -0.000000 -0.000000  0.000000  0.000000
  8C   2px       -0.001539 -0.004207 -0.002239  0.002341  0.001812  0.000951
  8C   2py        0.002555 -0.003152 -0.001182  0.001819 -0.000593 -0.000690
  8C   4s         0.004548  0.000142  0.006400 -0.004599  0.011478  0.039355
  8C   3pz        0.000000  0.000000  0.000000  0.000000 -0.000000  0.000000
  8C   3px        0.000566  0.000594  0.000199  0.000335 -0.003815 -0.013043
  8C   3py       -0.000923  0.002348  0.001263 -0.002301  0.005108  0.019688
  8C   5s         0.002921  0.008152 -0.011576  0.008672 -0.020925  0.030414
  8C   4pz       -0.000000 -0.000000 -0.000000 -0.000000  0.000000 -0.000000
  8C   4px        0.000684 -0.003633  0.000953  0.000671  0.003058 -0.003498
  8C   4py       -0.000833  0.000552 -0.003872  0.002798 -0.003123  0.005719
  8C   1dz2       0.000226 -0.000261  0.000854 -0.000869  0.002134  0.001916
  8C   1dxz      -0.000000 -0.000000 -0.000000 -0.000000  0.000000  0.000000
  8C   1dyz      -0.000000 -0.000000  0.000000  0.000000  0.000000  0.000000
  8C   1dx2y2     0.000565  0.002427  0.001390 -0.001406 -0.000822 -0.000394
  8C   1dxy       0.001435 -0.001396 -0.000160  0.000685 -0.000307 -0.000348
  9H   1s         0.000196  0.000178 -0.000029 -0.000409  0.000065  0.000482
  9H   2s         0.004060 -0.004667  0.000493  0.003476 -0.000427 -0.004881
  9H   3s        -0.004256  0.001901  0.000001  0.000448 -0.000190 -0.004302
  9H   1pz        0.000000  0.000000  0.000000 -0.000000 -0.000000  0.000000
  9H   1px       -0.002422  0.002463 -0.000204 -0.001450  0.000161  0.001107
  9H   1py       -0.000133  0.000120 -0.000211 -0.000096 -0.000097  0.000056
 10H   1s         0.000259 -0.000037 -0.000136  0.000211  0.000320  0.000491
 10H   2s         0.003570  0.001539  0.003497 -0.003071 -0.003089 -0.005322
 10H   3s        -0.004390 -0.001470 -0.001608  0.000580 -0.000154 -0.004006
 10H   1pz        0.000000 -0.000000  0.000000 -0.000000  0.000000 -0.000000
 10H   1px        0.000994  0.000320  0.000960 -0.000715 -0.000538 -0.000598
 10H   1py        0.002011  0.000995  0.001646 -0.001235 -0.001209 -0.001234
 11H   1s         0.000277 -0.000005 -0.000104  0.000104 -0.000353 -0.000502
 11H   2s         0.003282 -0.001281  0.003360 -0.001923  0.003993  0.005596
 11H   3s        -0.004263  0.001537 -0.002099  0.000656 -0.000243  0.003876
 11H   1pz       -0.000000  0.000000 -0.000000  0.000000 -0.000000 -0.000000
 11H   1px       -0.001140  0.000344 -0.001145  0.000598 -0.000940 -0.000819
 11H   1py        0.001750 -0.000856  0.001592 -0.000736  0.001510  0.001280
                      6         7         8         9        10        11   
                  -0.77908  -0.67683  -0.67676  -0.54688  -0.54679  -0.47985
                   2.00000   2.00000   2.00000   2.00000   2.00000   2.00000
                  --------  --------  --------  --------  --------  --------
  0C   1s         0.051603  0.027282  0.067105 -0.002441 -0.056914  0.006317
  0C   2s         0.079834  0.042499  0.104542 -0.003835 -0.089699  0.009778
  0C   1pz       -0.000000  0.000000 -0.000000 -0.000000 -0.000000  0.000000
  0C   1px       -0.016385  0.038629 -0.022201 -0.082557 -0.012966  0.050924
  0C   1py        0.025059  0.030168 -0.002328 -0.052259  0.027540 -0.078172
  0C   3s        -0.199125 -0.109011 -0.268199  0.010027  0.236386 -0.025387
  0C   2pz       -0.000000 -0.000000  0.000000 -0.000000 -0.000000  0.000000
  0C   2px       -0.022608  0.053139 -0.031563 -0.111194 -0.017211  0.068172
  0C   2py        0.034651  0.042438 -0.002288 -0.070713  0.036708 -0.104987
  0C   4s        -0.101316 -0.062527 -0.149186  0.005570  0.156465 -0.043326
  0C   3pz        0.000000 -0.000000 -0.000000 -0.000000 -0.000000 -0.000000
  0C   3px       -0.006390  0.022987 -0.010299 -0.050200 -0.010486  0.039760
  0C   3py        0.010301  0.017024 -0.004668 -0.030820  0.020401 -0.059634
  0C   5s         0.001045 -0.013077 -0.019825 -0.003205 -0.169874  0.000818
  0C   4pz       -0.000000  0.000000  0.000000  0.000000 -0.000000  0.000000
  0C   4px        0.002754 -0.015777  0.013682 -0.010023 -0.033524 -0.002182
  0C   4py       -0.005888 -0.018733 -0.011000 -0.003486  0.039953 -0.005202
  0C   1dz2       0.009368  0.003251  0.008115 -0.000140 -0.004721 -0.001791
  0C   1dxz      -0.000000  0.000000 -0.000000  0.000000  0.000000 -0.000000
  0C   1dyz      -0.000000 -0.000000  0.000000 -0.000000  0.000000 -0.000000
  0C   1dx2y2     0.000074  0.008281 -0.005546 -0.006592  0.001220 -0.003458
  0C   1dxy       0.000106 -0.005715 -0.002680  0.003008  0.002150 -0.007912
  1C   1s         0.051612 -0.044467  0.057204  0.050509  0.026328  0.006344
  1C   2s         0.079847 -0.069269  0.089117  0.079612  0.041490  0.009825
  1C   1pz       -0.000000  0.000000 -0.000000 -0.000000  0.000000  0.000000
  1C   1px        0.013502  0.034084  0.032793  0.028293 -0.083739 -0.041954
  1C   1py        0.026697 -0.024787 -0.006846 -0.044240  0.026617 -0.083372
  1C   3s        -0.199112  0.177673 -0.228702 -0.209921 -0.109406 -0.025680
  1C   2pz       -0.000000  0.000000 -0.000000 -0.000000  0.000000  0.000000
  1C   2px        0.018632  0.046935  0.045982  0.038299 -0.112895 -0.056444
  1C   2py        0.036999 -0.035222 -0.008712 -0.059281  0.036210 -0.112050
  1C   4s        -0.102851  0.101285 -0.124688 -0.137507 -0.070785 -0.044146
  1C   3pz       -0.000000  0.000000  0.000000  0.000000 -0.000000  0.000000
  1C   3px        0.005870  0.020829  0.017411  0.016383 -0.052198 -0.031951
  1C   3py        0.011500 -0.013290 -0.009105 -0.032229  0.014229 -0.064000
  1C   5s         0.005006  0.006522 -0.001618  0.151646  0.075760  0.006811
  1C   4pz        0.000000 -0.000000 -0.000000 -0.000000  0.000000 -0.000000
  1C   4px       -0.002494 -0.015327 -0.022239 -0.025250 -0.020624  0.001698
  1C   4py       -0.005860  0.020638 -0.006719 -0.039506 -0.016793 -0.002229
  1C   1dz2       0.009413 -0.005367  0.006945  0.004228  0.002127 -0.001824
  1C   1dxz       0.000000  0.000000  0.000000 -0.000000 -0.000000 -0.000000
  1C   1dyz       0.000000 -0.000000 -0.000000 -0.000000  0.000000 -0.000000
  1C   1dx2y2     0.000085 -0.004908 -0.007627 -0.003939  0.004477 -0.005139
  1C   1dxy      -0.000128 -0.007478 -0.000698 -0.000217  0.004737  0.006947
  2C   1s         0.051615 -0.071762 -0.009915 -0.048045  0.030572  0.006189
  2C   2s         0.079857 -0.111797 -0.015448 -0.075706  0.048180  0.009572
  2C   1pz       -0.000000  0.000000  0.000000 -0.000000  0.000000  0.000000
  2C   1px        0.029837 -0.011176  0.001426  0.028571 -0.011701 -0.093247
  2C   1py        0.001662  0.006582 -0.052242 -0.051023 -0.083337 -0.005132
  2C   3s        -0.199253  0.286835  0.039689  0.199182 -0.126855 -0.024809
  2C   2pz       -0.000000  0.000000  0.000000  0.000000  0.000000  0.000000
  2C   2px        0.041561 -0.017334  0.001651  0.037740 -0.015483 -0.124523
  2C   2py        0.002257  0.009185 -0.072524 -0.068687 -0.112317 -0.007104
  2C   4s        -0.100485  0.156949  0.020038  0.134035 -0.085730 -0.042025
  2C   3pz       -0.000000 -0.000000 -0.000000 -0.000000  0.000000  0.000000
  2C   3px        0.009813  0.002619  0.003360  0.023069 -0.009177 -0.077415
  2C   3py        0.000906  0.003572 -0.031127 -0.033794 -0.052798 -0.003622
  2C   5s        -0.001253  0.020563  0.003070 -0.147797  0.094043 -0.028515
  2C   4pz       -0.000000  0.000000  0.000000  0.000000 -0.000000  0.000000
  2C   4px       -0.006708  0.019478  0.002444  0.043988 -0.027834 -0.001022
  2C   4py       -0.001032  0.001067  0.022915  0.009107  0.003998 -0.001732
  2C   1dz2       0.009373 -0.008720 -0.001185 -0.004108  0.002603 -0.001724
  2C   1dxz       0.000000  0.000000  0.000000  0.000000 -0.000000 -0.000000
  2C   1dyz      -0.000000  0.000000 -0.000000  0.000000  0.000000 -0.000000
  2C   1dx2y2    -0.000129 -0.004814 -0.001838 -0.002451  0.000645  0.008624
  2C   1dxy      -0.000046 -0.001971  0.010469  0.003663  0.006230  0.000949
  3H   1s        -0.019788  0.028808 -0.037112 -0.059945 -0.031261 -0.065756
  3H   2s        -0.023445  0.035022 -0.044356 -0.077167 -0.040906 -0.084897
  3H   3s         0.003804 -0.002128  0.003387 -0.006365 -0.002875 -0.010674
  3H   1pz       -0.000000 -0.000000 -0.000000  0.000000 -0.000000 -0.000000
  3H   1px        0.001804 -0.000788  0.004896  0.006730 -0.001650  0.004541
  3H   1py        0.003573 -0.006294  0.006034  0.008071  0.006912  0.008994
  4C   1s         0.051619  0.071760  0.009918 -0.048044  0.030572  0.006189
  4C   2s         0.079863  0.111795  0.015452 -0.075703  0.048179  0.009572
  4C   1pz       -0.000000 -0.000000 -0.000000  0.000000 -0.000000  0.000000
  4C   1px       -0.029838 -0.011174  0.001426 -0.028572  0.011701  0.093253
  4C   1py       -0.001662  0.006581 -0.052245  0.051023  0.083341  0.005132
  4C   3s        -0.199269 -0.286830 -0.039697  0.199175 -0.126853 -0.024809
  4C   2pz        0.000000 -0.000000 -0.000000 -0.000000 -0.000000  0.000000
  4C   2px       -0.041563 -0.017331  0.001651 -0.037741  0.015484  0.124531
  4C   2py       -0.002257  0.009184 -0.072527  0.068687  0.112323  0.007104
  4C   4s        -0.100493 -0.156946 -0.020042  0.134033 -0.085729 -0.042027
  4C   3pz       -0.000000  0.000000  0.000000  0.000000  0.000000  0.000000
  4C   3px       -0.009814  0.002620  0.003361 -0.023069  0.009177  0.077420
  4C   3py       -0.000906  0.003573 -0.031129  0.033793  0.052800  0.003623
  4C   5s        -0.001286 -0.020560 -0.003067 -0.147814  0.094022 -0.028507
  4C   4pz        0.000000 -0.000000 -0.000000 -0.000000 -0.000000 -0.000000
  4C   4px        0.006703  0.019479  0.002446 -0.043991  0.027829  0.001025
  4C   4py        0.001031  0.001067  0.022916 -0.009106 -0.003998  0.001732
  4C   1dz2       0.009373  0.008720  0.001186 -0.004108  0.002603 -0.001724
  4C   1dxz      -0.000000  0.000000  0.000000  0.000000  0.000000  0.000000
  4C   1dyz       0.000000  0.000000 -0.000000  0.000000  0.000000  0.000000
  4C   1dx2y2    -0.000128  0.004814  0.001839 -0.002451  0.000645  0.008624
  4C   1dxy      -0.000046  0.001971 -0.010469  0.003663  0.006231  0.000949
  5H   1s        -0.019781 -0.017658 -0.043485  0.002913  0.067496 -0.065609
  5H   2s        -0.023448 -0.021724 -0.052560  0.004314  0.087649 -0.085253
  5H   3s         0.004386  0.001864  0.004190 -0.000797  0.006738 -0.009102
  5H   1pz       -0.000000  0.000000 -0.000000  0.000000  0.000000  0.000000
  5H   1px       -0.002194  0.000084 -0.005757 -0.004035  0.006540 -0.005521
  5H   1py        0.003339  0.004467  0.006916 -0.003325 -0.009565  0.008416
  6C   1s         0.051615  0.044463 -0.057205  0.050509  0.026327  0.006343
  6C   2s         0.079852  0.069263 -0.089120  0.079611  0.041489  0.009823
  6C   1pz       -0.000000 -0.000000  0.000000  0.000000 -0.000000  0.000000
  6C   1px       -0.013502  0.034087  0.032794 -0.028291  0.083742  0.041954
  6C   1py       -0.026698 -0.024787 -0.006847  0.044239 -0.026620  0.083375
  6C   3s        -0.199123 -0.177658  0.228708 -0.209919 -0.109403 -0.025677
  6C   2pz       -0.000000  0.000000  0.000000 -0.000000  0.000000  0.000000
  6C   2px       -0.018630  0.046938  0.045983 -0.038296  0.112898  0.056444
  6C   2py       -0.037001 -0.035221 -0.008714  0.059279 -0.036213  0.112055
  6C   4s        -0.102857 -0.101277  0.124691 -0.137508 -0.070783 -0.044143
  6C   3pz       -0.000000 -0.000000 -0.000000 -0.000000 -0.000000 -0.000000
  6C   3px       -0.005870  0.020831  0.017412 -0.016381  0.052200  0.031952
  6C   3py       -0.011501 -0.013291 -0.009106  0.032227 -0.014230  0.064003
  6C   5s         0.005038 -0.006524  0.001613  0.151666  0.075788  0.006797
  6C   4pz       -0.000000  0.000000  0.000000  0.000000 -0.000000  0.000000
  6C   4px        0.002497 -0.015327 -0.022241  0.025251  0.020627 -0.001700
  6C   4py        0.005867  0.020637 -0.006720  0.039509  0.016797  0.002228
  6C   1dz2       0.009414  0.005367 -0.006945  0.004228  0.002127 -0.001824
  6C   1dxz      -0.000000 -0.000000  0.000000 -0.000000 -0.000000  0.000000
  6C   1dyz       0.000000 -0.000000 -0.000000 -0.000000  0.000000 -0.000000
  6C   1dx2y2     0.000086  0.004908  0.007627 -0.003938  0.004477 -0.005140
  6C   1dxy      -0.000127  0.007478  0.000698 -0.000217  0.004737  0.006947
  7H   1s        -0.019828 -0.046583 -0.006456  0.057156 -0.036345 -0.065573
  7H   2s        -0.023089 -0.055525 -0.007540  0.073452 -0.046939 -0.084320
  7H   3s         0.005544  0.006659  0.001464  0.004723 -0.003858 -0.004275
  7H   1pz       -0.000000 -0.000000  0.000000 -0.000000 -0.000000  0.000000
  7H   1px       -0.004027 -0.009619 -0.001175  0.009595 -0.006451 -0.010033
  7H   1py       -0.000212 -0.000136 -0.002760  0.003262  0.004010 -0.000536
  8C   1s         0.051602 -0.027285 -0.067104 -0.002444 -0.056914  0.006318
  8C   2s         0.079832 -0.042504 -0.104540 -0.003839 -0.089699  0.009779
  8C   1pz       -0.000000  0.000000  0.000000 -0.000000  0.000000  0.000000
  8C   1px        0.016388  0.038627 -0.022205  0.082558  0.012963 -0.050924
  8C   1py       -0.025057  0.030167 -0.002330  0.052257 -0.027542  0.078172
  8C   3s        -0.199122  0.109022  0.268197  0.010038  0.236386 -0.025390
  8C   2pz       -0.000000 -0.000000  0.000000  0.000000  0.000000  0.000000
  8C   2px        0.022611  0.053135 -0.031567  0.111196  0.017206 -0.068172
  8C   2py       -0.034648  0.042437 -0.002290  0.070711 -0.036711  0.104986
  8C   4s        -0.101313  0.062534  0.149184  0.005580  0.156464 -0.043329
  8C   3pz        0.000000  0.000000  0.000000 -0.000000  0.000000  0.000000
  8C   3px        0.006391  0.022985 -0.010301  0.050200  0.010485 -0.039759
  8C   3py       -0.010300  0.017024 -0.004669  0.030819 -0.020402  0.059634
  8C   5s         0.001013  0.013075  0.019826 -0.003223 -0.169899  0.000831
  8C   4pz        0.000000 -0.000000 -0.000000 -0.000000  0.000000 -0.000000
  8C   4px       -0.002751 -0.015776  0.013681  0.010025  0.033527  0.002179
  8C   4py        0.005882 -0.018733 -0.010999  0.003482 -0.039956  0.005203
  8C   1dz2       0.009368 -0.003252 -0.008115 -0.000141 -0.004721 -0.001791
  8C   1dxz      -0.000000 -0.000000 -0.000000  0.000000 -0.000000 -0.000000
  8C   1dyz      -0.000000  0.000000 -0.000000  0.000000  0.000000  0.000000
  8C   1dx2y2     0.000074 -0.008280  0.005546 -0.006593  0.001220 -0.003457
  8C   1dxy       0.000106  0.005715  0.002680  0.003008  0.002150 -0.007912
  9H   1s        -0.019826  0.046583  0.006455  0.057156 -0.036345 -0.065568
  9H   2s        -0.023086  0.055524  0.007538  0.073452 -0.046938 -0.084313
  9H   3s         0.005543 -0.006660 -0.001464  0.004722 -0.003857 -0.004273
  9H   1pz        0.000000  0.000000  0.000000  0.000000 -0.000000  0.000000
  9H   1px        0.004026 -0.009619 -0.001174 -0.009595  0.006451  0.010033
  9H   1py        0.000212 -0.000136 -0.002760 -0.003262 -0.004010  0.000536
 10H   1s        -0.019789 -0.028805  0.037113 -0.059944 -0.031259 -0.065756
 10H   2s        -0.023446 -0.035019  0.044357 -0.077167 -0.040904 -0.084899
 10H   3s         0.003804  0.002128 -0.003387 -0.006366 -0.002875 -0.010675
 10H   1pz        0.000000 -0.000000  0.000000 -0.000000  0.000000  0.000000
 10H   1px       -0.001804 -0.000787  0.004896 -0.006730  0.001650 -0.004541
 10H   1py       -0.003573 -0.006294  0.006035 -0.008071 -0.006912 -0.008995
 11H   1s        -0.019781  0.017660  0.043485  0.002917  0.067496 -0.065609
 11H   2s        -0.023448  0.021726  0.052560  0.004320  0.087649 -0.085254
 11H   3s         0.004386 -0.001864 -0.004190 -0.000796  0.006738 -0.009102
 11H   1pz       -0.000000 -0.000000  0.000000  0.000000 -0.000000  0.000000
 11H   1px        0.002194  0.000084 -0.005757  0.004034 -0.006541  0.005521
 11H   1py       -0.003338  0.004467  0.006916  0.003326  0.009565 -0.008416
                     12        13        14        15        16        17   
                  -0.41249  -0.40815  -0.38062  -0.38046  -0.33969  -0.30713
                   2.00000   2.00000   2.00000   2.00000   2.00000   2.00000
                  --------  --------  --------  --------  --------  --------
  0C   1s        -0.033262  0.000002 -0.002592  0.012693  0.000000 -0.000743
  0C   2s        -0.052725  0.000004 -0.004131  0.020172  0.000000 -0.001257
  0C   1pz        0.000000 -0.000000  0.000000 -0.000000  0.102421 -0.000000
  0C   1px       -0.033700 -0.109621 -0.015877 -0.083601  0.000000 -0.064365
  0C   1py        0.051745 -0.071369 -0.045033  0.113944 -0.000000 -0.102960
  0C   3s         0.140194  0.000013  0.012387 -0.060177  0.000000  0.005660
  0C   2pz        0.000000 -0.000000 -0.000000 -0.000000  0.154950 -0.000000
  0C   2px       -0.045436 -0.149593 -0.027813 -0.113530 -0.000000 -0.086349
  0C   2py        0.069592 -0.097886 -0.064456  0.152811 -0.000000 -0.138662
  0C   4s         0.171721 -0.002664  0.011330 -0.058503 -0.000000 -0.012016
  0C   3pz        0.000000  0.000000  0.000000 -0.000000  0.110514  0.000000
  0C   3px       -0.019529 -0.080191  0.025629 -0.064391 -0.000000 -0.051987
  0C   3py        0.028663 -0.051105 -0.013484  0.102341  0.000000 -0.094871
  0C   5s        -0.065912  0.030612 -0.048559  0.076532  0.000000 -0.028691
  0C   4pz       -0.000000 -0.000000 -0.000000  0.000000  0.004116 -0.000000
  0C   4px       -0.015664 -0.003457 -0.032860 -0.001427  0.000000 -0.014348
  0C   4py        0.014101 -0.001828 -0.021819  0.011386 -0.000000 -0.009439
  0C   1dz2      -0.000961  0.000068  0.000070 -0.000508  0.000000 -0.000098
  0C   1dxz      -0.000000 -0.000000 -0.000000 -0.000000  0.006780 -0.000000
  0C   1dyz      -0.000000 -0.000000 -0.000000  0.000000 -0.010347  0.000000
  0C   1dx2y2    -0.007122 -0.003604 -0.018438 -0.004375 -0.000000 -0.005744
  0C   1dxy      -0.016095  0.001591  0.008400  0.000293  0.000000  0.016764
  1C   1s         0.033199  0.000031  0.009709  0.008719 -0.000000  0.001591
  1C   2s         0.052627  0.000046  0.015420  0.013844 -0.000000  0.002657
  1C   1pz        0.000000 -0.000000 -0.000000 -0.000000  0.102401 -0.000000
  1C   1px       -0.028266  0.116780  0.025911  0.068636 -0.000000  0.051025
  1C   1py       -0.055393 -0.059134  0.107600  0.072065  0.000000  0.093622
  1C   3s        -0.140006 -0.000012 -0.045723 -0.041043 -0.000000 -0.011445
  1C   2pz        0.000000 -0.000000 -0.000000 -0.000000  0.155074 -0.000000
  1C   2px       -0.038138  0.159688  0.030285  0.097548 -0.000000  0.068761
  1C   2py       -0.074509 -0.081091  0.147123  0.094739  0.000000  0.126486
  1C   4s        -0.170493 -0.003151 -0.045412 -0.044364  0.000000  0.020630
  1C   3pz       -0.000000 -0.000000 -0.000000  0.000000  0.110114 -0.000000
  1C   3px       -0.016241  0.084916  0.051007  0.027463 -0.000000  0.053959
  1C   3py       -0.031192 -0.042933  0.078867  0.080600 -0.000000  0.094162
  1C   5s         0.070638  0.021575  0.052616 -0.001763 -0.000000  0.052088
  1C   4pz        0.000000  0.000000  0.000000 -0.000000  0.004310  0.000000
[...]
 0 C  px              0.0       3.2       0.4       2.2       0.0      11.0
 0 C  py              0.0       1.3       0.2       5.4       0.0       4.7
 0 C  dz2             0.0       0.0       0.0       0.4       0.0       0.0
 0 C  dxz             0.2       0.0       0.0       0.0       0.4       0.0
 0 C  dyz             0.0       0.0       0.0       0.0       0.8       0.0
 0 C  dx2y2           0.0       7.5       1.2       2.1       0.0       0.7
 0 C  dxy             0.0       1.3       0.3      11.7       0.0       0.1
 1 C  s               0.0       0.0       0.1       0.0       0.0       0.0
 1 C  pz             23.8       0.0       0.0       0.0      15.4       0.0
 1 C  px              0.0       3.6       1.6       0.4       0.0      12.5
 1 C  py              0.0       0.9       4.3       1.9       0.0       3.2
 1 C  dz2             0.0       0.0       0.3       0.1       0.0       0.0
 1 C  dxz             0.2       0.0       0.0       0.0       0.2       0.0
 1 C  dyz             0.0       0.0       0.0       0.0       1.0       0.0
 1 C  dx2y2           0.0       5.8       5.7       0.0       0.0       0.5
 1 C  dxy             0.0       2.9       5.2       4.5       0.0       0.3
 2 C  s               0.0       0.0       0.1       0.0       0.0       0.0
 2 C  pz              0.0       0.0       0.0       0.0      15.3       0.0
 2 C  px              0.0       0.0       5.5       2.0       0.0       0.0
 2 C  py              0.0       4.5       0.2       0.4       0.0      15.7
 2 C  dz2             0.0       0.0       0.3       0.1       0.0       0.0
 2 C  dxz             0.0       0.0       0.0       0.0       1.2       0.0
 2 C  dyz             0.4       0.0       0.0       0.0       0.0       0.0
 2 C  dx2y2           0.0       0.1      10.6       3.2       0.0       0.0
 2 C  dxy             0.0       8.9       0.1       1.4       0.0       0.8
 3 H  s               0.0       0.0       6.1       1.9       0.0       0.0
 3 H  px              0.0       2.6       0.5       0.3       0.0       0.1
 3 H  py              0.0       0.7       0.2       0.5       0.0       0.0
 4 C  s               0.0       0.0       0.1       0.0       0.0       0.0
 4 C  pz              0.0       0.0       0.0       0.0      15.3       0.0
 4 C  px              0.0       0.0       5.5       2.0       0.0       0.0
 4 C  py              0.0       4.5       0.2       0.4       0.0      15.7
 4 C  dz2             0.0       0.0       0.3       0.1       0.0       0.0
 4 C  dxz             0.0       0.0       0.0       0.0       1.2       0.0
 4 C  dyz             0.4       0.0       0.0       0.0       0.0       0.0
 4 C  dx2y2           0.0       0.1      10.6       3.2       0.0       0.0
 4 C  dxy             0.0       8.9       0.1       1.4       0.0       0.8
 5 H  s               0.0       0.0       0.0       8.0       0.0       0.0
 5 H  px              0.0       2.3       0.5       0.2       0.0       0.1
 5 H  py              0.0       1.0       0.2       0.4       0.0       0.0
 6 C  s               0.0       0.0       0.1       0.0       0.0       0.0
 6 C  pz             23.8       0.0       0.0       0.0      15.4       0.0
 6 C  px              0.0       3.6       1.6       0.4       0.0      12.5
 6 C  py              0.0       0.9       4.3       1.9       0.0       3.2
 6 C  dz2             0.0       0.0       0.3       0.1       0.0       0.0
 6 C  dxz             0.2       0.0       0.0       0.0       0.2       0.0
 6 C  dyz             0.0       0.0       0.0       0.0       1.0       0.0
 6 C  dx2y2           0.0       5.8       5.7       0.0       0.0       0.5
 6 C  dxy             0.0       2.9       5.2       4.5       0.0       0.3
 7 H  s               0.0       0.0       5.9       2.1       0.0       0.0
 7 H  px              0.0       0.0       0.4       0.2       0.0       0.0
 7 H  py              0.0       3.4       0.2       0.5       0.0       0.1
 8 C  s               0.0       0.0       0.0       0.2       0.0       0.0
 8 C  pz             25.4       0.0       0.0       0.0      15.4       0.0
 8 C  px              0.0       3.2       0.4       2.2       0.0      11.0
 8 C  py              0.0       1.3       0.2       5.4       0.0       4.7
 8 C  dz2             0.0       0.0       0.0       0.4       0.0       0.0
 8 C  dxz             0.2       0.0       0.0       0.0       0.4       0.0
 8 C  dyz             0.0       0.0       0.0       0.0       0.8       0.0
 8 C  dx2y2           0.0       7.5       1.2       2.1       0.0       0.7
 8 C  dxy             0.0       1.3       0.3      11.7       0.0       0.1
 9 H  s               0.0       0.0       5.9       2.1       0.0       0.0
 9 H  px              0.0       0.0       0.4       0.2       0.0       0.0
 9 H  py              0.0       3.4       0.2       0.5       0.0       0.1
10 H  s               0.0       0.0       6.1       1.9       0.0       0.0
10 H  px              0.0       2.6       0.5       0.3       0.0       0.1
10 H  py              0.0       0.7       0.2       0.5       0.0       0.0
11 H  s               0.0       0.0       0.0       8.0       0.0       0.0
11 H  px              0.0       2.3       0.5       0.2       0.0       0.1
11 H  py              0.0       1.0       0.2       0.4       0.0       0.0

                    150       151       152       153       154       155   
                   3.24786   3.24828   3.38562   3.38596   3.40197   3.59469
                   0.00000   0.00000   0.00000   0.00000   0.00000   0.00000
                  --------  --------  --------  --------  --------  --------
 0 C  s               1.3       1.2       1.1       0.4       0.8       0.5
 0 C  px              4.1      14.0       9.9       0.7       3.7       0.6
 0 C  py              9.2       0.9       5.2       9.5       8.8       1.3
 0 C  dz2             0.1       0.1       0.1       0.0       0.0       0.1
 0 C  dx2y2           0.2       0.6       0.4       0.0       0.2       1.7
 0 C  dxy             0.3       0.0       0.9       0.6       0.9       9.0
 1 C  s               2.3       0.2       1.1       0.4       0.8       0.5
 1 C  px              0.3      19.7       8.3       1.5       2.5       0.4
 1 C  py              5.6       2.6       6.9       8.7      10.0       1.5
 1 C  dz2             0.2       0.0       0.1       0.0       0.0       0.1
 1 C  dx2y2           0.0       0.7       0.7       0.0       0.4       3.8
 1 C  dxy             0.2       0.2       0.6       0.6       0.7       7.0
 2 C  s               0.1       2.4       0.0       1.5       0.8       0.5
 2 C  px              0.0       4.1       0.0      17.7      12.5       1.8
 2 C  py             23.1       1.0       7.7       0.1       0.0       0.0
 2 C  dz2             0.0       0.3       0.0       0.1       0.0       0.1
 2 C  dx2y2           0.0       0.1       0.0       1.8       1.1      10.6
 2 C  dxy             0.9       0.1       0.2       0.0       0.0       0.1
 3 H  s               0.8       0.1       2.4       0.8       1.6       3.1
 3 H  px              0.1       0.0       0.2       0.1       0.1       0.1
 3 H  py              0.3       0.0       0.7       0.2       0.6       0.2
 4 C  s               0.1       2.4       0.0       1.5       0.8       0.5
 4 C  px              0.0       4.1       0.0      17.7      12.5       1.8
 4 C  py             23.1       1.0       7.7       0.1       0.0       0.0
 4 C  dz2             0.0       0.3       0.0       0.1       0.0       0.1
 4 C  dx2y2           0.0       0.1       0.0       1.8       1.1      10.6
 4 C  dxy             0.9       0.1       0.2       0.0       0.0       0.1
 5 H  s               0.5       0.4       2.4       0.8       1.6       3.1
 5 H  px              0.0       0.1       0.3       0.1       0.2       0.1
 5 H  py              0.2       0.1       0.6       0.2       0.5       0.2
 6 C  s               2.3       0.2       1.1       0.4       0.8       0.5
 6 C  px              0.3      19.7       8.3       1.5       2.5       0.4
 6 C  py              5.6       2.6       6.9       8.7      10.0       1.5
 6 C  dz2             0.2       0.0       0.1       0.0       0.0       0.1
 6 C  dx2y2           0.0       0.7       0.7       0.0       0.4       3.8
 6 C  dxy             0.2       0.2       0.6       0.6       0.7       7.0
 7 H  s               0.0       0.8       0.0       3.2       1.6       3.1
 7 H  px              0.0       0.4       0.0       1.2       0.7       0.3
 8 C  s               1.3       1.2       1.1       0.4       0.8       0.5
 8 C  px              4.1      14.0       9.9       0.8       3.7       0.6
 8 C  py              9.2       0.9       5.2       9.5       8.8       1.3
 8 C  dz2             0.1       0.1       0.1       0.0       0.0       0.1
 8 C  dx2y2           0.2       0.6       0.4       0.0       0.2       1.7
 8 C  dxy             0.3       0.0       0.9       0.6       0.9       9.0
 9 H  s               0.0       0.8       0.0       3.2       1.6       3.1
 9 H  px              0.0       0.4       0.0       1.2       0.7       0.3
10 H  s               0.8       0.1       2.4       0.8       1.6       3.1
10 H  px              0.1       0.0       0.2       0.1       0.1       0.1
10 H  py              0.3       0.0       0.7       0.2       0.6       0.2
11 H  s               0.5       0.4       2.4       0.8       1.6       3.1
11 H  px              0.0       0.1       0.3       0.1       0.2       0.1
11 H  py              0.2       0.1       0.6       0.2       0.5       0.2

                    156       157       158       159       160       161   
                   3.87501   3.87517   3.97413   4.04233   4.04362   4.75276
                   0.00000   0.00000   0.00000   0.00000   0.00000   0.00000
                  --------  --------  --------  --------  --------  --------
 0 C  s               0.1       0.6       0.6       0.3       1.0       0.0
 0 C  px              6.2       2.7       3.9      15.9       0.3      10.0
 0 C  py              0.2      15.3       9.2       1.7       8.7       4.3
 0 C  dx2y2           0.8       0.2       0.1       2.3       0.1       1.9
 0 C  dxy             0.1       2.6       0.7       0.0       1.4       0.4
 1 C  s               0.7       0.0       0.6       0.4       0.9       0.0
 1 C  px              3.2       4.1       2.7      15.9       1.7      11.4
 1 C  py             17.0       0.1      10.5       0.3       8.6       2.9
 1 C  dx2y2           0.9       0.5       0.3       2.1       0.0       1.5
 1 C  dxy             2.1       0.1       0.6       0.1       1.6       0.8
 2 C  s               0.3       0.5       0.6       1.2       0.0       0.0
 2 C  px              8.0      12.4      13.0       5.8       0.1       0.0
 2 C  py              2.0       2.0       0.0       0.1      20.5      14.3
 2 C  dx2y2           1.0       2.1       0.9       1.2       0.0       0.0
 2 C  dxy             0.4       0.1       0.0       0.0       2.5       2.3
 3 H  s               3.3       0.1       1.4       0.4       1.0       0.0
 3 H  px              0.2       0.0       0.1       0.0       0.0       0.0
 3 H  py              0.9       0.0       0.5       0.1       0.1       0.0
 4 C  s               0.3       0.5       0.6       1.2       0.0       0.0
 4 C  px              8.0      12.4      13.0       5.8       0.1       0.0
 4 C  py              2.0       2.0       0.0       0.1      20.5      14.3
 4 C  dx2y2           1.0       2.1       0.9       1.2       0.0       0.0
 4 C  dxy             0.4       0.1       0.0       0.0       2.5       2.3
 5 H  s               0.5       2.9       1.3       0.3       1.2       0.0
 5 H  px              0.1       0.3       0.2       0.0       0.1       0.0
 5 H  py              0.1       0.7       0.5       0.0       0.1       0.0
 6 C  s               0.7       0.0       0.6       0.4       0.9       0.0
 6 C  px              3.2       4.1       2.7      15.9       1.7      11.4
 6 C  py             17.0       0.1      10.5       0.3       8.6       2.9
 6 C  dx2y2           0.9       0.5       0.3       2.1       0.0       1.5
 6 C  dxy             2.1       0.1       0.6       0.1       1.6       0.8
 7 H  s               1.2       2.1       1.3       1.5       0.0       0.0
 7 H  px              0.4       0.7       0.7       0.2       0.0       0.0
 8 C  s               0.1       0.6       0.6       0.3       1.0       0.0
 8 C  px              6.2       2.7       3.9      15.9       0.3      10.0
 8 C  py              0.2      15.3       9.2       1.7       8.7       4.3
 8 C  dx2y2           0.8       0.2       0.1       2.3       0.1       1.9
 8 C  dxy             0.1       2.6       0.7       0.0       1.4       0.4
 9 H  s               1.2       2.1       1.3       1.5       0.0       0.0
 9 H  px              0.4       0.7       0.7       0.2       0.0       0.0
10 H  s               3.3       0.1       1.4       0.4       1.0       0.0
10 H  px              0.2       0.0       0.1       0.0       0.0       0.0
10 H  py              0.9       0.0       0.5       0.1       0.1       0.0
11 H  s               0.5       2.9       1.3       0.3       1.2       0.0
11 H  px              0.1       0.3       0.2       0.0       0.1       0.0
11 H  py              0.1       0.7       0.5       0.0       0.1       0.0

                    162       163       164       165       166       167   
                  23.46863  23.87088  23.87107  24.01185  24.01245  24.12298
                   0.00000   0.00000   0.00000   0.00000   0.00000   0.00000
                  --------  --------  --------  --------  --------  --------
 0 C  s              16.6       0.0      33.1      12.7      20.5      16.6
 0 C  px              0.0       0.1       0.0       0.0       0.0       0.0
 1 C  s              16.6      24.3       8.7       4.6      28.6      16.6
 2 C  s              16.6      25.3       7.8      32.5       0.7      16.5
 2 C  py              0.0       0.0       0.1       0.0       0.1       0.0
 4 C  s              16.6      25.3       7.8      32.5       0.7      16.5
 4 C  py              0.0       0.0       0.1       0.0       0.1       0.0
 6 C  s              16.6      24.3       8.7       4.6      28.6      16.6
 8 C  s              16.6       0.0      33.1      12.7      20.5      16.6
 8 C  px              0.0       0.1       0.0       0.0       0.0       0.0



                      *****************************
                      * MAYER POPULATION ANALYSIS *
                      *****************************

  NA   - Mulliken gross atomic population
  ZA   - Total nuclear charge
  QA   - Mulliken gross atomic charge
  VA   - Mayer's total valence
  BVA  - Mayer's bonded valence
  FA   - Mayer's free valence

  ATOM       NA         ZA         QA         VA         BVA        FA
  0 C      6.1694     6.0000    -0.1694     4.0386     4.0386     0.0000
  1 C      6.1284     6.0000    -0.1284     4.0008     4.0008     0.0000
  2 C      6.2018     6.0000    -0.2018     4.0618     4.0618    -0.0000
  3 H      0.8391     1.0000     0.1609     0.9541     0.9541    -0.0000
  4 C      6.2017     6.0000    -0.2017     4.0618     4.0618    -0.0000
  5 H      0.8377     1.0000     0.1623     0.9532     0.9532    -0.0000
  6 C      6.1284     6.0000    -0.1284     4.0008     4.0008    -0.0000
  7 H      0.8236     1.0000     0.1764     0.9464     0.9464    -0.0000
  8 C      6.1694     6.0000    -0.1694     4.0386     4.0386    -0.0000
  9 H      0.8236     1.0000     0.1764     0.9464     0.9464    -0.0000
 10 H      0.8391     1.0000     0.1609     0.9541     0.9541     0.0000
 11 H      0.8377     1.0000     0.1623     0.9532     0.9532     0.0000

  Mayer bond orders larger than 0.100000
B(  0-C ,  1-C ) :   1.5048 B(  0-C ,  4-C ) :   1.5215 B(  0-C ,  5-H ) :   0.9438 
B(  1-C ,  2-C ) :   1.5118 B(  1-C ,  3-H ) :   0.9278 B(  2-C ,  8-C ) :   1.5216 
B(  2-C ,  9-H ) :   0.9393 B(  4-C ,  6-C ) :   1.5118 B(  4-C ,  7-H ) :   0.9393 
B(  6-C ,  8-C ) :   1.5048 B(  6-C , 10-H ) :   0.9278 B(  8-C , 11-H ) :   0.9438 


-------
TIMINGS
-------

Total SCF time: 0 days 0 hours 0 min 5 sec 

Total time                  ....       5.672 sec
Sum of individual times     ....       5.250 sec  ( 92.6%)

Fock matrix formation       ....       3.891 sec  ( 68.6%)
  Split-RI-J                ....       1.848 sec  ( 47.5% of F)
  XC integration            ....       1.959 sec  ( 50.4% of F)
    Basis function eval.    ....       0.502 sec  ( 25.6% of XC)
    Density eval.           ....       0.709 sec  ( 36.2% of XC)
    XC-Functional eval.     ....       0.097 sec  (  4.9% of XC)
    XC-Potential eval.      ....       0.528 sec  ( 27.0% of XC)
Diagonalization             ....       0.012 sec  (  0.2%)
Density matrix formation    ....       0.002 sec  (  0.0%)
Population analysis         ....       0.042 sec  (  0.7%)
Initial guess               ....       0.012 sec  (  0.2%)
Orbital Transformation      ....       0.000 sec  (  0.0%)
Orbital Orthonormalization  ....       0.007 sec  (  0.1%)
DIIS solution               ....       0.003 sec  (  0.1%)
SOSCF solution              ....       0.046 sec  (  0.8%)
Grid generation             ....       1.242 sec  ( 21.9%)

-------------------------   --------------------
FINAL SINGLE POINT ENERGY      -230.154178171482
-------------------------   --------------------

                                *** OPTIMIZATION RUN DONE ***

                            ***************************************
                            *     ORCA property calculations      *
                            ***************************************

                                    ---------------------
                                    Active property flags
                                    ---------------------
   (+) Dipole Moment


------------------------------------------------------------------------------
                       ORCA ELECTRIC PROPERTIES CALCULATION
------------------------------------------------------------------------------

Dipole Moment Calculation                       ... on
Quadrupole Moment Calculation                   ... off
Polarizability Calculation                      ... off
GBWName                                         ... ben.gbw
Electron density file                           ... ben.scfp
The origin for moment calculation is the CENTER OF MASS  = (-10.713852, -1.324928 -0.000000)

-------------
DIPOLE MOMENT
-------------
                                X             Y             Z
Electronic contribution:     -0.00004      -0.00002      -0.00000
Nuclear contribution   :      0.00001       0.00000       0.00000
                        -----------------------------------------
Total Dipole Moment    :     -0.00003      -0.00001       0.00000
                        -----------------------------------------
Magnitude (a.u.)       :      0.00003
Magnitude (Debye)      :      0.00009



--------------------
Rotational spectrum 
--------------------
 
Rotational constants in cm-1:     0.191249     0.191225     0.095618 
Rotational constants in MHz :  5733.495309  5732.766706  2866.565492 

 Dipole components along the rotational axes: 
x,y,z [a.u.] :     0.000014    -0.000031     0.000000 
x,y,z [Debye]:     0.000035    -0.000079     0.000000 

 

Timings for individual modules:

Sum of individual times         ...       59.075 sec (=   0.985 min)
GTO integral calculation        ...        2.141 sec (=   0.036 min)   3.6 %
SCF iterations                  ...       38.685 sec (=   0.645 min)  65.5 %
SCF Gradient evaluation         ...       16.981 sec (=   0.283 min)  28.7 %
Geometry relaxation             ...        1.268 sec (=   0.021 min)   2.1 %
                             ****ORCA TERMINATED NORMALLY****
TOTAL RUN TIME: 0 days 0 hours 1 minutes 0 seconds 576 msec
