
                                 *****************
                                 * O   R   C   A *
                                 *****************

           --- An Ab Initio, DFT and Semiempirical electronic structure package ---

                  #######################################################
                  #                        -***-                        #
                  #          Department of theory and spectroscopy      #
                  #               Directorship: Frank Neese             #
                  #        Max Planck Institute fuer Kohlenforschung    #
                  #                Kaiser Wilhelm Platz 1               #
                  #                 D-45470 Muelheim/Ruhr               #
                  #                      Germany                        #
                  #                                                     #
                  #                  All rights reserved                #
                  #                        -***-                        #
                  #######################################################


                         Program Version 4.2.1 -  RELEASE  -


 With contributions from (in alphabetic order):
   Daniel Aravena         : Magnetic Suceptibility
   Michael Atanasov       : Ab Initio Ligand Field Theory (pilot matlab implementation)
   Alexander A. Auer      : GIAO ZORA, VPT2
   Ute Becker             : Parallelization
   Giovanni Bistoni       : ED, misc. LED, open-shell LED, HFLD
   Martin Brehm           : Molecular dynamics
   Dmytro Bykov           : SCF Hessian
   Vijay G. Chilkuri      : MRCI spin determinant printing, contributions to CSF-ICE
   Dipayan Datta          : RHF DLPNO-CCSD density
   Achintya Kumar Dutta   : EOM-CC, STEOM-CC
   Dmitry Ganyushin       : Spin-Orbit,Spin-Spin,Magnetic field MRCI
   Miquel Garcia          : C-PCM Hessian, Gaussian charge scheme
   Yang Guo               : DLPNO-NEVPT2, CIM, IAO-localization
   Andreas Hansen         : Spin unrestricted coupled pair/coupled cluster methods
   Benjamin Helmich-Paris : CASSCF linear response (MC-RPA)
   Lee Huntington         : MR-EOM, pCC
   Robert Izsak           : Overlap fitted RIJCOSX, COSX-SCS-MP3, EOM
   Christian Kollmar      : KDIIS, OOCD, Brueckner-CCSD(T), CCSD density
   Simone Kossmann        : Meta GGA functionals, TD-DFT gradient, OOMP2, MP2 Hessian
   Martin Krupicka        : AUTO-CI
   Lucas Lang             : DCDCAS
   Dagmar Lenk            : GEPOL surface, SMD
   Dimitrios Liakos       : Extrapolation schemes; Compound Job, initial MDCI parallelization
   Dimitrios Manganas     : Further ROCIS development; embedding schemes
   Dimitrios Pantazis     : SARC Basis sets
   Taras Petrenko         : DFT Hessian,TD-DFT gradient, ASA, ECA, R-Raman, ABS, FL, XAS/XES, NRVS
   Peter Pinski           : DLPNO-MP2, DLPNO-MP2 Gradient
   Christoph Reimann      : Effective Core Potentials
   Marius Retegan         : Local ZFS, SOC
   Christoph Riplinger    : Optimizer, TS searches, QM/MM, DLPNO-CCSD(T), (RO)-DLPNO pert. Triples
   Tobias Risthaus        : Range-separated hybrids, TD-DFT gradient, RPA, STAB
   Michael Roemelt        : Original ROCIS implementation
   Masaaki Saitow         : Open-shell DLPNO-CCSD energy and density
   Barbara Sandhoefer     : DKH picture change effects
   Avijit Sen             : IP-ROCIS
   Kantharuban Sivalingam : CASSCF convergence, NEVPT2, FIC-MRCI
   Bernardo de Souza      : ESD, SOC TD-DFT
   Georgi Stoychev        : AutoAux, RI-MP2 NMR
   Willem Van den Heuvel  : Paramagnetic NMR
   Boris Wezisla          : Elementary symmetry handling
   Frank Wennmohs         : Technical directorship


 We gratefully acknowledge several colleagues who have allowed us to
 interface, adapt or use parts of their codes:
   Stefan Grimme, W. Hujo, H. Kruse,             : VdW corrections, initial TS optimization,
                  C. Bannwarth                     DFT functionals, gCP, sTDA/sTD-DF
   Ed Valeev, F. Pavosevic, A. Kumar             : LibInt (2-el integral package), F12 methods
   Garnet Chan, S. Sharma, J. Yang, R. Olivares  : DMRG
   Ulf Ekstrom                                   : XCFun DFT Library
   Mihaly Kallay                                 : mrcc  (arbitrary order and MRCC methods)
   Andreas Klamt, Michael Diedenhofen            : otool_cosmo (COSMO solvation model)
   Jiri Pittner, Ondrej Demel                    : Mk-CCSD
   Frank Weinhold                                : gennbo (NPA and NBO analysis)
   Christopher J. Cramer and Donald G. Truhlar   : smd solvation model
   Lars Goerigk                                  : TD-DFT with DH, B97 family of functionals
   V. Asgeirsson, H. Jonsson                     : NEB implementation
   FAccTs GmbH                                   : IRC, NEB, NEB-TS, Multilevel, MM, QM/MM, CI optimization
   S Lehtola, MJT Oliveira, MAL Marques          : LibXC Library


 Your calculation uses the libint2 library for the computation of 2-el integrals
 For citations please refer to: http://libint.valeyev.net

 Your ORCA version has been built with support for libXC version: 4.2.3
 For citations please refer to: https://tddft.org/programs/libxc/

 This ORCA versions uses:
   CBLAS   interface :  Fast vector & matrix operations
   LAPACKE interface :  Fast linear algebra routines
   SCALAPACK package :  Parallel linear algebra routines


----- Orbital basis set information -----
Your calculation utilizes the basis: 6-311+G(d,p)
   H, Li - Ne  : R. Krishnan, J. S. Binkley, R. Seeger and J. A. Pople, J. Chem. Phys. 72, 650 (1980).
   Na - Ar     : A. D. McLean and G. S. Chandler J. Chem. Phys. 72, 5639, (1980).
   K  - Ca     : J.-P. Blaudeau, M. P. McGrath, L. A. Curtiss and L. Radom, J. Chem. Phys. 107, 5016 (1997).
   Ga - Kr     : L. A. Curtiss, M. P. McGrath, J.-P. Blandeau, N. E. Davis, R. C. Binning and L. Radom, J. Chem. Phys. 103, 6104 (1995).
   Pol./Diff.
   H, Li - Cl  : T. Clark, J. Chandrasekhar and P. v. R. Schleyer, J. Comp. Chem. 4, 294 (1983).
   H - Ne      : M. J. Frisch, J. A. Pople and J. S. Binkley, J. Chem. Phys. 80, 3265 (1984).

================================================================================
                                        WARNINGS
                       Please study these warnings very carefully!
================================================================================


WARNING: Geometry Optimization
  ===> : Switching off AutoStart
         For restart on a previous wavefunction, please use MOREAD

INFO   : the flag for use of LIBINT has been found!

================================================================================
                                       INPUT FILE
================================================================================
NAME = ben.inp
|  1> ! RHF 6-311+G(d,p) Opt 
|  2> 
|  3> ! Normalprint
|  4> %output
|  5> Print[P_Basis] 2
|  6> Print[P_MOs] 1
|  7> end
|  8> 
|  9> * xyz 0 1
| 10>    C       -6.43508        0.46988        0.00000
| 11>    C       -5.03818        0.54737       -0.00000
| 12>    C       -4.27263       -0.62364       -0.00000
| 13>    H       -4.54975        1.51323       -0.00000
| 14>    C       -7.06642       -0.77860        0.00000
| 15>    H       -7.02732        1.37581        0.00000
| 16>    C       -6.30087       -1.94961        0.00000
| 17>    H       -8.14710       -0.83854        0.00000
| 18>    C       -4.90398       -1.87213        0.00000
| 19>    H       -3.19195       -0.56370       -0.00000
| 20>    H       -6.78930       -2.91548        0.00000
| 21>    H       -4.31173       -2.77805        0.00000
| 22> *
| 23> 
| 24>                          ****END OF INPUT****
================================================================================

                       *****************************
                       * Geometry Optimization Run *
                       *****************************

Geometry optimization settings:
Update method            Update   .... BFGS
Choice of coordinates    CoordSys .... Z-matrix Internals
Initial Hessian          InHess   .... Almoef's Model

Convergence Tolerances:
Energy Change            TolE     ....  5.0000e-06 Eh
Max. Gradient            TolMAXG  ....  3.0000e-04 Eh/bohr
RMS Gradient             TolRMSG  ....  1.0000e-04 Eh/bohr
Max. Displacement        TolMAXD  ....  4.0000e-03 bohr
RMS Displacement         TolRMSD  ....  2.0000e-03 bohr
Strict Convergence                ....  False
------------------------------------------------------------------------------
                        ORCA OPTIMIZATION COORDINATE SETUP
------------------------------------------------------------------------------

The optimization will be done in new redundant internal coordinates
Making redundant internal coordinates   ...  (new redundants) done
Evaluating the initial hessian          ...  (Almloef) done
Evaluating the coordinates              ...  done
Calculating the B-matrix                .... done
Calculating the G-matrix                .... done
Diagonalizing the G-matrix              .... done
The first mode is                       ....   24
The number of degrees of freedom        ....   30

    -----------------------------------------------------------------
                    Redundant Internal Coordinates


    -----------------------------------------------------------------
         Definition                    Initial Value    Approx d2E/dq
    -----------------------------------------------------------------
      1. B(C   1,C   0)                  1.3990         0.604371   
      2. B(C   2,C   1)                  1.3990         0.604373   
      3. B(H   3,C   1)                  1.0823         0.370384   
      4. B(C   4,C   0)                  1.3990         0.604404   
      5. B(H   5,C   0)                  1.0823         0.370379   
      6. B(C   6,C   4)                  1.3990         0.604373   
      7. B(H   7,C   4)                  1.0823         0.370376   
      8. B(C   8,C   6)                  1.3990         0.604394   
      9. B(C   8,C   2)                  1.3990         0.604374   
     10. B(H   9,C   2)                  1.0823         0.370376   
     11. B(H  10,C   6)                  1.0823         0.370372   
     12. B(H  11,C   8)                  1.0823         0.370383   
     13. A(C   1,C   0,H   5)          119.9990         0.353065   
     14. A(C   4,C   0,H   5)          120.0007         0.353068   
     15. A(C   1,C   0,C   4)          120.0002         0.430105   
     16. A(C   0,C   1,C   2)          119.9996         0.430101   
     17. A(C   0,C   1,H   3)          120.0006         0.353066   
     18. A(C   2,C   1,H   3)          119.9998         0.353066   
     19. A(C   8,C   2,H   9)          120.0000         0.353065   
     20. A(C   1,C   2,H   9)          120.0001         0.353065   
     21. A(C   1,C   2,C   8)          120.0000         0.430102   
     22. A(C   0,C   4,C   6)          120.0001         0.430105   
     23. A(C   6,C   4,H   7)          120.0001         0.353065   
     24. A(C   0,C   4,H   7)          119.9998         0.353068   
     25. A(C   4,C   6,H  10)          120.0000         0.353064   
     26. A(C   4,C   6,C   8)          120.0000         0.430104   
     27. A(C   8,C   6,H  10)          119.9999         0.353066   
     28. A(C   2,C   8,C   6)          120.0000         0.430104   
     29. A(C   6,C   8,H  11)          120.0001         0.353068   
     30. A(C   2,C   8,H  11)          119.9998         0.353066   
     31. D(H   3,C   1,C   0,C   4)    180.0000         0.025200   
     32. D(H   3,C   1,C   0,H   5)      0.0000         0.025200   
     33. D(C   2,C   1,C   0,H   5)    180.0000         0.025200   
     34. D(C   2,C   1,C   0,C   4)      0.0000         0.025200   
     35. D(H   9,C   2,C   1,C   0)    180.0000         0.025201   
     36. D(C   8,C   2,C   1,C   0)      0.0000         0.025201   
     37. D(C   8,C   2,C   1,H   3)    180.0000         0.025201   
     38. D(H   9,C   2,C   1,H   3)      0.0000         0.025201   
     39. D(H   7,C   4,C   0,H   5)      0.0000         0.025203   
     40. D(H   7,C   4,C   0,C   1)    180.0000         0.025203   
     41. D(C   6,C   4,C   0,H   5)    180.0000         0.025203   
     42. D(C   6,C   4,C   0,C   1)      0.0000         0.025203   
     43. D(H  10,C   6,C   4,C   0)    180.0000         0.025201   
     44. D(C   8,C   6,C   4,H   7)    180.0000         0.025201   
     45. D(C   8,C   6,C   4,C   0)      0.0000         0.025201   
     46. D(H  10,C   6,C   4,H   7)      0.0000         0.025201   
     47. D(H  11,C   8,C   6,H  10)      0.0000         0.025202   
     48. D(C   2,C   8,C   6,H  10)    180.0000         0.025202   
     49. D(C   2,C   8,C   6,C   4)      0.0000         0.025202   
     50. D(H  11,C   8,C   2,H   9)      0.0000         0.025201   
     51. D(H  11,C   8,C   2,C   1)    180.0000         0.025201   
     52. D(H  11,C   8,C   6,C   4)    180.0000         0.025202   
     53. D(C   6,C   8,C   2,H   9)    180.0000         0.025201   
     54. D(C   6,C   8,C   2,C   1)      0.0000         0.025201   
    -----------------------------------------------------------------

Number of atoms                         .... 12
Number of degrees of freedom            .... 54

         *************************************************************
         *                GEOMETRY OPTIMIZATION CYCLE   1            *
         *************************************************************
---------------------------------
CARTESIAN COORDINATES (ANGSTROEM)
---------------------------------
  C     -6.435080    0.469880    0.000000
  C     -5.038180    0.547370   -0.000000
  C     -4.272630   -0.623640   -0.000000
  H     -4.549750    1.513230   -0.000000
  C     -7.066420   -0.778600    0.000000
  H     -7.027320    1.375810    0.000000
  C     -6.300870   -1.949610    0.000000
  H     -8.147100   -0.838540    0.000000
  C     -4.903980   -1.872130    0.000000
  H     -3.191950   -0.563700   -0.000000
  H     -6.789300   -2.915480    0.000000
  H     -4.311730   -2.778050    0.000000

----------------------------
CARTESIAN COORDINATES (A.U.)
----------------------------
  NO LB      ZA    FRAG     MASS         X           Y           Z
   0 C     6.0000    0    12.011  -12.160539    0.887945    0.000000
   1 C     6.0000    0    12.011   -9.520780    1.034379   -0.000000
   2 C     6.0000    0    12.011   -8.074101   -1.178509   -0.000000
   3 H     1.0000    0     1.008   -8.597781    2.859590   -0.000000
   4 C     6.0000    0    12.011  -13.353599   -1.471341    0.000000
   5 H     1.0000    0     1.008  -13.279710    2.599904    0.000000
   6 C     6.0000    0    12.011  -11.906919   -3.684229    0.000000
   7 H     1.0000    0     1.008  -15.395788   -1.584611    0.000000
   8 C     6.0000    0    12.011   -9.267179   -3.537813    0.000000
   9 H     1.0000    0     1.008   -6.031911   -1.065239   -0.000000
  10 H     1.0000    0     1.008  -12.829918   -5.509459    0.000000
  11 H     1.0000    0     1.008   -8.147989   -5.249754    0.000000

--------------------------------
INTERNAL COORDINATES (ANGSTROEM)
--------------------------------
 C      0   0   0     0.000000000000     0.00000000     0.00000000
 C      1   0   0     1.399047643971     0.00000000     0.00000000
 C      2   1   0     1.399046540541   119.99962302     0.00000000
 H      2   1   3     1.082335162738   120.00057361   180.00000000
 C      1   2   3     1.399032703692   120.00023178     0.00000000
 H      1   2   3     1.082338848282   119.99902710   180.00000000
 C      5   1   2     1.399046540541   120.00014520     0.00000000
 H      5   1   2     1.082341011881   119.99978881   180.00000000
 C      7   5   1     1.399037105476   120.00000924     0.00000000
 H      3   2   1     1.082341011881   120.00006599   180.00000000
 H      7   5   1     1.082344086601   120.00004226   180.00000000
 H      9   7   5     1.082335950110   120.00014608   180.00000121

---------------------------
INTERNAL COORDINATES (A.U.)
---------------------------
 C      0   0   0     0.000000000000     0.00000000     0.00000000
 C      1   0   0     2.643816895412     0.00000000     0.00000000
 C      2   1   0     2.643814810233   119.99962302     0.00000000
 H      2   1   3     2.045317042689   120.00057361   180.00000000
 C      1   2   3     2.643788662377   120.00023178     0.00000000
 H      1   2   3     2.045324007356   119.99902710   180.00000000
 C      5   1   2     2.643814810233   120.00014520     0.00000000
 H      5   1   2     2.045328095967   119.99978881   180.00000000
 C      7   5   1     2.643796980544   120.00000924     0.00000000
 H      3   2   1     2.045328095967   120.00006599   180.00000000
 H      7   5   1     2.045333906345   120.00004226   180.00000000
 H      9   7   5     2.045318530605   120.00014608   180.00000121

---------------------
BASIS SET INFORMATION
---------------------
There are 2 groups of distinct atoms

 Group   1 Type C   : 12s6p1d contracted to 5s4p1d pattern {63111/3111/1}
 Group   2 Type H   : 5s1p contracted to 3s1p pattern {311/1}

Atom   0C    basis set group =>   1
Atom   1C    basis set group =>   1
Atom   2C    basis set group =>   1
Atom   3H    basis set group =>   2
Atom   4C    basis set group =>   1
Atom   5H    basis set group =>   2
Atom   6C    basis set group =>   1
Atom   7H    basis set group =>   2
Atom   8C    basis set group =>   1
Atom   9H    basis set group =>   2
Atom  10H    basis set group =>   2
Atom  11H    basis set group =>   2

-------------------------
BASIS SET IN INPUT FORMAT
-------------------------

 # Basis set for element : H 
 NewGTO H 
 S 3 
   1      33.8650000000      0.0254938145
   2       5.0947900000      0.1903731086
   3       1.1587900000      0.8521614860
 S 1 
   1       0.3258400000      1.0000000000
 S 1 
   1       0.1027410000      1.0000000000
 P 1 
   1       0.7500000000      1.0000000000
  end;

 # Basis set for element : C 
 NewGTO C 
 S 6 
   1    4563.2400000000      0.0019666502
   2     682.0240000000      0.0152306019
   3     154.9730000000      0.0761269097
   4      44.4553000000      0.2608010331
   5      13.0290000000      0.6164620782
   6       1.8277300000      0.2210060280
 S 3 
   1      20.9642000000      0.1146600807
   2       4.8033100000      0.9199996477
   3       1.4593300000     -0.0030306821
 P 3 
   1      20.9642000000      0.0402486927
   2       4.8033100000      0.2375939567
   3       1.4593300000      0.8158538515
 S 1 
   1       0.4834560000      1.0000000000
 P 1 
   1       0.4834560000      1.0000000000
 S 1 
   1       0.1455850000      1.0000000000
 P 1 
   1       0.1455850000      1.0000000000
 S 1 
   1       0.0438000000      1.0000000000
 P 1 
   1       0.0438000000      1.0000000000
 D 1 
   1       0.6260000000      1.0000000000
  end;

------------------------------------------------------------------------------
                           ORCA GTO INTEGRAL CALCULATION
------------------------------------------------------------------------------

                         BASIS SET STATISTICS AND STARTUP INFO

 # of primitive gaussian shells          ...  150
 # of primitive gaussian functions       ...  258
 # of contracted shells                  ...   84
 # of contracted basis functions         ...  168
 Highest angular momentum                ...    2
 Maximum contraction depth               ...    6
 Integral package used                   ... LIBINT
 Integral threshhold            Thresh   ...  2.500e-11
 Primitive cut-off              TCut     ...  2.500e-12


------------------------------ INTEGRAL EVALUATION ----------------------------


 * One electron integrals 
 Pre-screening matrix                    ... done
 Shell pair data                         ... done (   0.002 sec)

-------------------------------------------------------------------------------
                                 ORCA SCF
-------------------------------------------------------------------------------

------------
SCF SETTINGS
------------
Hamiltonian:
 Ab initio Hamiltonian  Method          .... Hartree-Fock(GTOs)


General Settings:
 Integral files         IntName         .... ben
 Hartree-Fock type      HFTyp           .... RHF
 Total Charge           Charge          ....    0
 Multiplicity           Mult            ....    1
 Number of Electrons    NEL             ....   42
 Basis Dimension        Dim             ....  168
 Nuclear Repulsion      ENuc            ....    203.0193512800 Eh

Convergence Acceleration:
 DIIS                   CNVDIIS         .... on
   Start iteration      DIISMaxIt       ....    12
   Startup error        DIISStart       ....  0.200000
   # of expansion vecs  DIISMaxEq       ....     5
   Bias factor          DIISBfac        ....   1.050
   Max. coefficient     DIISMaxC        ....  10.000
 Newton-Raphson         CNVNR           .... off
 SOSCF                  CNVSOSCF        .... on
   Start iteration      SOSCFMaxIt      ....   150
   Startup grad/error   SOSCFStart      ....  0.003300
 Level Shifting         CNVShift        .... on
   Level shift para.    LevelShift      ....    0.2500
   Turn off err/grad.   ShiftErr        ....    0.0010
 Zerner damping         CNVZerner       .... off
 Static damping         CNVDamp         .... on
   Fraction old density DampFac         ....    0.7000
   Max. Damping (<1)    DampMax         ....    0.9800
   Min. Damping (>=0)   DampMin         ....    0.0000
   Turn off err/grad.   DampErr         ....    0.1000
 Fernandez-Rico         CNVRico         .... off

SCF Procedure:
 Maximum # iterations   MaxIter         ....   125
 SCF integral mode      SCFMode         .... Direct
   Integral package                     .... LIBINT
 Reset frequency        DirectResetFreq ....    20
 Integral Threshold     Thresh          ....  2.500e-11 Eh
 Primitive CutOff       TCut            ....  2.500e-12 Eh

Convergence Tolerance:
 Convergence Check Mode ConvCheckMode   .... Total+1el-Energy
 Convergence forced     ConvForced      .... 0
 Energy Change          TolE            ....  1.000e-08 Eh
 1-El. energy change                    ....  1.000e-05 Eh
 Orbital Gradient       TolG            ....  1.000e-05
 Orbital Rotation angle TolX            ....  1.000e-05
 DIIS Error             TolErr          ....  5.000e-07


Diagonalization of the overlap matrix:
Smallest eigenvalue                        ... 4.267e-06
Time for diagonalization                   ...    0.155 sec
Threshold for overlap eigenvalues          ... 1.000e-08
Number of eigenvalues below threshold      ... 0
Time for construction of square roots      ...    0.015 sec
Total time needed                          ...    0.170 sec

-------------------
DFT GRID GENERATION
-------------------

General Integration Accuracy     IntAcc      ...  4.340
Radial Grid Type                 RadialGrid  ... Gauss-Chebyshev
Angular Grid (max. acc.)         AngularGrid ... Lebedev-110
Angular grid pruning method      GridPruning ... 3 (G Style)
Weight generation scheme         WeightScheme... Becke
Basis function cutoff            BFCut       ...    1.0000e-11
Integration weight cutoff        WCut        ...    1.0000e-14
Grids for H and He will be reduced by one unit

# of grid points (after initial pruning)     ...  14700 (   0.0 sec)
# of grid points (after weights+screening)   ...  13762 (   0.0 sec)
nearest neighbour list constructed           ...    0.0 sec
Grid point re-assignment to atoms done       ...    0.0 sec
Grid point division into batches done        ...    0.0 sec
Reduced shell lists constructed in    0.2 sec

Total number of grid points                  ...    13762
Total number of batches                      ...      220
Average number of points per batch           ...       62
Average number of grid points per atom       ...     1147
Average number of shells per batch           ...    66.84 (79.57%)
Average number of basis functions per batch  ...   136.77 (81.41%)
Average number of large shells per batch     ...    55.16 (82.52%)
Average number of large basis fcns per batch ...   114.04 (83.38%)
Maximum spatial batch extension              ...  17.12, 20.35, 27.00 au
Average spatial batch extension              ...   3.70,  4.02,  5.53 au

Time for grid setup =    0.224 sec

------------------------------
INITIAL GUESS: MODEL POTENTIAL
------------------------------
Loading Hartree-Fock densities                     ... done
Calculating cut-offs                               ... done
Setting up the integral package                    ... done
Initializing the effective Hamiltonian             ... done
Starting the Coulomb interaction                   ... done (   0.1 sec)
Reading the grid                                   ... done
Mapping shells                                     ... done
Starting the XC term evaluation                    ... done (   0.2 sec)
Transforming the Hamiltonian                       ... done (   0.0 sec)
Diagonalizing the Hamiltonian                      ... done (   0.0 sec)
Back transforming the eigenvectors                 ... done (   0.0 sec)
Now organizing SCF variables                       ... done
                      ------------------
                      INITIAL GUESS DONE (   0.7 sec)
                      ------------------
--------------
SCF ITERATIONS
--------------
               ***  Starting incremental Fock matrix formation  ***

                         ----------------------------
                         !        ITERATION     0   !
                         ----------------------------
   Total Energy        :    -230.499825459316 Eh
   Energy Change       :    -230.499825459316 Eh
   MAX-DP              :       0.036625075577
   RMS-DP              :       0.001502892789
   Actual Damping      :       0.7000
   Actual Level Shift  :       0.2500 Eh


                         ----------------------------
                         !        ITERATION     1   !
                         ----------------------------
   Total Energy        :    -230.587324934561 Eh
   Energy Change       :      -0.087499475245 Eh
   MAX-DP              :       0.025947271518
   RMS-DP              :       0.001262511740
   Actual Damping      :       0.7000
   Actual Level Shift  :       0.2500 Eh

                               ***Turning on DIIS***

                         ----------------------------
                         !        ITERATION     2   !
                         ----------------------------
   Total Energy        :    -230.641920227190 Eh
   Energy Change       :      -0.054595292629 Eh
   MAX-DP              :       0.051826312673
   RMS-DP              :       0.003059119162
   Actual Damping      :       0.0000
   Actual Level Shift  :       0.2500 Eh
   DIIS-Error          :       0.081817112308


                         ----------------------------
                         !        ITERATION     3   !
                         ----------------------------
   Total Energy        :    -230.345389019627 Eh
   Energy Change       :       0.296531207563 Eh
   MAX-DP              :       0.020301857218
   RMS-DP              :       0.000765895055
   Actual Damping      :       0.0000
   Actual Level Shift  :       0.2500 Eh
   DIIS-Error          :       0.029969896548
   DIIS coefficients:
      0.20426   0.79574


                         ----------------------------
                         !        ITERATION     4   !
                         ----------------------------
   Total Energy        :    -230.759262270560 Eh
   Energy Change       :      -0.413873250933 Eh
   MAX-DP              :       0.007564934244
   RMS-DP              :       0.000265906999
   Actual Damping      :       0.0000
   Actual Level Shift  :       0.2500 Eh
   DIIS-Error          :       0.005529135348
   DIIS coefficients:
     -0.01395  -0.02861   1.04257

                      *** Initiating the SOSCF procedure ***
                           *** Shutting down DIIS ***
                      *** Re-Reading the Fockian *** 
                      *** Removing any level shift *** 

                         ----------------------------
                         !        ITERATION     5   !
                         ----------------------------
   Total Energy        :    -230.753946832725 Eh
   Energy Change       :       0.005315437835 Eh
   MAX-DP              :       0.001900679921
   RMS-DP              :       0.000094872570
   Orbital gradient    :       0.001764079021
   Orbital Rotation    :       0.001764079021
   Actual Damping      :       0.0000

               *** Restarting incremental Fock matrix formation ***

                         ----------------------------
                         !        ITERATION     6   !
                         ----------------------------
   Total Energy        :    -230.755585205471 Eh
   Energy Change       :      -0.001638372746 Eh
   MAX-DP              :       0.000372229681
   RMS-DP              :       0.000031813423
   Orbital gradient    :       0.000409221390
   Orbital Rotation    :       0.000420793841
   Actual Damping      :       0.0000


                         ----------------------------
                         !        ITERATION     7   !
                         ----------------------------
   Total Energy        :    -230.755588230272 Eh
   Energy Change       :      -0.000003024800 Eh
   MAX-DP              :       0.000551865717
   RMS-DP              :       0.000021047320
   Orbital gradient    :       0.000144672722
   Orbital Rotation    :       0.000176682334
   Actual Damping      :       0.0000


                         ----------------------------
                         !        ITERATION     8   !
                         ----------------------------
   Total Energy        :    -230.755588573619 Eh
   Energy Change       :      -0.000000343347 Eh
   MAX-DP              :       0.000059708870
   RMS-DP              :       0.000001909012
   Orbital gradient    :       0.000004871242
   Orbital Rotation    :       0.000007042450
   Actual Damping      :       0.0000

                  ***Gradient check signals convergence***
              ***Rediagonalizing the Fockian in SOSCF/NRSCF***

               *****************************************************
               *                     SUCCESS                       *
               *           SCF CONVERGED AFTER   9 CYCLES          *
               *****************************************************


----------------
TOTAL SCF ENERGY
----------------

Total Energy       :         -230.75558858 Eh           -6279.17879 eV

Components:
Nuclear Repulsion  :          203.01935128 Eh            5524.43741 eV
Electronic Energy  :         -433.77493986 Eh          -11803.61620 eV
One Electron Energy:         -712.37932715 Eh          -19384.82700 eV
Two Electron Energy:          278.60438730 Eh            7581.21080 eV

Virial components:
Potential Energy   :         -461.16314795 Eh          -12548.88723 eV
Kinetic Energy     :          230.40755938 Eh            6269.70844 eV
Virial Ratio       :            2.00151049


---------------
SCF CONVERGENCE
---------------

  Last Energy change         ...   -1.5543e-09  Tolerance :   1.0000e-08
  Last MAX-Density change    ...    1.1876e-05  Tolerance :   1.0000e-07
  Last RMS-Density change    ...    3.8237e-07  Tolerance :   5.0000e-09
  Last Orbital Gradient      ...    1.8555e-06  Tolerance :   1.0000e-05
  Last Orbital Rotation      ...    1.7980e-06  Tolerance :   1.0000e-05

             **** THE GBW FILE WAS UPDATED (ben.gbw) ****
             **** DENSITY FILE WAS UPDATED (ben.scfp) ****
             **** ENERGY FILE WAS UPDATED (ben.en.tmp) ****
             **** THE GBW FILE WAS UPDATED (ben.gbw) ****
             **** DENSITY FILE WAS UPDATED (ben.scfp) ****
----------------
ORBITAL ENERGIES
----------------

  NO   OCC          E(Eh)            E(eV) 
   0   2.0000     -11.240200      -305.8614 
   1   2.0000     -11.239642      -305.8462 
   2   2.0000     -11.239642      -305.8462 
   3   2.0000     -11.238437      -305.8134 
   4   2.0000     -11.238436      -305.8134 
   5   2.0000     -11.237846      -305.7973 
   6   2.0000      -1.149586       -31.2818 
   7   2.0000      -1.015252       -27.6264 
   8   2.0000      -1.015250       -27.6264 
   9   2.0000      -0.825081       -22.4516 
  10   2.0000      -0.825080       -22.4516 
  11   2.0000      -0.710094       -19.3226 
  12   2.0000      -0.646625       -17.5956 
  13   2.0000      -0.619048       -16.8451 
  14   2.0000      -0.589611       -16.0441 
  15   2.0000      -0.589610       -16.0441 
  16   2.0000      -0.500123       -13.6090 
  17   2.0000      -0.496605       -13.5133 
  18   2.0000      -0.496603       -13.5132 
  19   2.0000      -0.336273        -9.1504 
  20   2.0000      -0.336271        -9.1504 
  21   0.0000       0.070266         1.9120 
  22   0.0000       0.079208         2.1554 
  23   0.0000       0.079208         2.1554 
  24   0.0000       0.097751         2.6599 
  25   0.0000       0.097751         2.6599 
  26   0.0000       0.108325         2.9477 
  27   0.0000       0.108326         2.9477 
  28   0.0000       0.125170         3.4061 
  29   0.0000       0.129607         3.5268 
  30   0.0000       0.152707         4.1554 
  31   0.0000       0.152707         4.1554 
  32   0.0000       0.162768         4.4291 
  33   0.0000       0.163263         4.4426 
  34   0.0000       0.198744         5.4081 
  35   0.0000       0.198744         5.4081 
  36   0.0000       0.208955         5.6860 
  37   0.0000       0.215842         5.8734 
  38   0.0000       0.215843         5.8734 
  39   0.0000       0.226264         6.1570 
  40   0.0000       0.226264         6.1570 
  41   0.0000       0.250022         6.8034 
  42   0.0000       0.250022         6.8035 
  43   0.0000       0.276062         7.5120 
  44   0.0000       0.276063         7.5121 
  45   0.0000       0.276390         7.5210 
  46   0.0000       0.302927         8.2431 
  47   0.0000       0.308513         8.3951 
  48   0.0000       0.315188         8.5767 
  49   0.0000       0.315188         8.5767 
  50   0.0000       0.348483         9.4827 
  51   0.0000       0.348484         9.4827 
  52   0.0000       0.366221         9.9654 
  53   0.0000       0.371952        10.1213 
  54   0.0000       0.481255        13.0956 
  55   0.0000       0.481257        13.0957 
  56   0.0000       0.486373        13.2349 
  57   0.0000       0.486375        13.2349 
  58   0.0000       0.554441        15.0871 
  59   0.0000       0.604678        16.4541 
  60   0.0000       0.692350        18.8398 
  61   0.0000       0.710154        19.3243 
  62   0.0000       0.710154        19.3243 
  63   0.0000       0.715885        19.4802 
  64   0.0000       0.739772        20.1302 
  65   0.0000       0.739775        20.1303 
  66   0.0000       0.747767        20.3478 
  67   0.0000       0.758586        20.6422 
  68   0.0000       0.758587        20.6422 
  69   0.0000       0.795687        21.6517 
  70   0.0000       0.819430        22.2978 
  71   0.0000       0.819431        22.2979 
  72   0.0000       0.884941        24.0805 
  73   0.0000       0.922932        25.1143 
  74   0.0000       0.922934        25.1143 
  75   0.0000       0.923440        25.1281 
  76   0.0000       0.923443        25.1282 
  77   0.0000       0.927191        25.2302 
  78   0.0000       0.976259        26.5654 
  79   0.0000       1.002822        27.2882 
  80   0.0000       1.002823        27.2882 
  81   0.0000       1.005074        27.3495 
  82   0.0000       1.005075        27.3495 
  83   0.0000       1.083667        29.4881 
  84   0.0000       1.083668        29.4881 
  85   0.0000       1.099945        29.9310 
  86   0.0000       1.125213        30.6186 
  87   0.0000       1.170627        31.8544 
  88   0.0000       1.213686        33.0261 
  89   0.0000       1.213687        33.0261 
  90   0.0000       1.247713        33.9520 
  91   0.0000       1.321848        35.9693 
  92   0.0000       1.321848        35.9693 
  93   0.0000       1.388723        37.7891 
  94   0.0000       1.388724        37.7891 
  95   0.0000       1.500465        40.8297 
  96   0.0000       1.531534        41.6752 
  97   0.0000       1.708986        46.5039 
  98   0.0000       1.765212        48.0338 
  99   0.0000       1.765212        48.0339 
 100   0.0000       1.770884        48.1882 
 101   0.0000       1.823583        49.6222 
 102   0.0000       1.842173        50.1281 
 103   0.0000       1.842174        50.1281 
 104   0.0000       1.903930        51.8086 
 105   0.0000       1.903931        51.8086 
 106   0.0000       1.928995        52.4906 
 107   0.0000       1.928997        52.4907 
 108   0.0000       1.991696        54.1968 
 109   0.0000       2.055280        55.9270 
 110   0.0000       2.055281        55.9270 
 111   0.0000       2.084431        56.7203 
 112   0.0000       2.084434        56.7203 
 113   0.0000       2.127515        57.8926 
 114   0.0000       2.231591        60.7247 
 115   0.0000       2.231595        60.7248 
 116   0.0000       2.237363        60.8817 
 117   0.0000       2.241665        60.9988 
 118   0.0000       2.241666        60.9988 
 119   0.0000       2.279859        62.0381 
 120   0.0000       2.337976        63.6196 
 121   0.0000       2.337979        63.6197 
 122   0.0000       2.376162        64.6586 
 123   0.0000       2.376166        64.6588 
 124   0.0000       2.634342        71.6841 
 125   0.0000       2.654127        72.2225 
 126   0.0000       2.720308        74.0233 
 127   0.0000       2.720309        74.0234 
 128   0.0000       2.721532        74.0566 
 129   0.0000       2.759204        75.0817 
 130   0.0000       2.759205        75.0818 
 131   0.0000       2.944876        80.1341 
 132   0.0000       2.949028        80.2471 
 133   0.0000       2.949035        80.2473 
 134   0.0000       2.985650        81.2437 
 135   0.0000       3.016535        82.0841 
 136   0.0000       3.016535        82.0841 
 137   0.0000       3.044402        82.8424 
 138   0.0000       3.044404        82.8424 
 139   0.0000       3.055893        83.1551 
 140   0.0000       3.066701        83.4492 
 141   0.0000       3.190123        86.8077 
 142   0.0000       3.190124        86.8077 
 143   0.0000       3.257044        88.6287 
 144   0.0000       3.291270        89.5600 
 145   0.0000       3.291271        89.5600 
 146   0.0000       3.295548        89.6764 
 147   0.0000       3.295552        89.6765 
 148   0.0000       3.476514        94.6007 
 149   0.0000       3.536597        96.2357 
 150   0.0000       3.765344       102.4602 
 151   0.0000       3.765352       102.4604 
 152   0.0000       3.899206       106.1028 
 153   0.0000       3.899213       106.1030 
 154   0.0000       3.909219       106.3753 
 155   0.0000       4.060279       110.4858 
 156   0.0000       4.394497       119.5804 
 157   0.0000       4.394501       119.5805 
 158   0.0000       4.490845       122.2021 
 159   0.0000       4.568113       124.3047 
 160   0.0000       4.568116       124.3048 
 161   0.0000       5.269244       143.3834 
 162   0.0000      24.745805       673.3676 
 163   0.0000      25.115209       683.4196 
 164   0.0000      25.115220       683.4199 
 165   0.0000      25.240545       686.8301 
 166   0.0000      25.240561       686.8306 
 167   0.0000      25.348661       689.7721 
------------------
MOLECULAR ORBITALS
------------------
                      0         1         2         3         4         5   
                 -11.24020 -11.23964 -11.23964 -11.23844 -11.23844 -11.23785
                   2.00000   2.00000   2.00000   2.00000   2.00000   2.00000
                  --------  --------  --------  --------  --------  --------
  0C   1s        -0.229777 -0.007871 -0.325119  0.011915 -0.325049  0.230190
  0C   2s        -0.190250 -0.006518 -0.269235  0.009870 -0.269248  0.190695
  0C   1pz       -0.000000  0.000000 -0.000000  0.000000 -0.000000  0.000000
  0C   1px       -0.000017 -0.000153  0.000001 -0.000163  0.000065 -0.000078
  0C   1py        0.000026 -0.000100  0.000006 -0.000101 -0.000112  0.000119
  0C   3s        -0.002009 -0.000063 -0.002623  0.000083 -0.002277  0.001548
  0C   2pz        0.000000 -0.000000  0.000000  0.000000  0.000000 -0.000000
  0C   2px       -0.000098 -0.000127 -0.000077 -0.000091 -0.000053  0.000027
  0C   2py        0.000150 -0.000079  0.000124 -0.000063  0.000074 -0.000042
  0C   4s         0.000378  0.000004  0.000182 -0.000013  0.000331 -0.001453
  0C   3pz       -0.000000  0.000000 -0.000000 -0.000000 -0.000000  0.000000
  0C   3px        0.000005  0.000209  0.000011  0.000016  0.000146 -0.000530
  0C   3py       -0.000008  0.000136 -0.000028  0.000023 -0.000222  0.000810
  0C   5s        -0.000022 -0.000001 -0.000041  0.000059 -0.001647 -0.002492
  0C   4pz        0.000000 -0.000000  0.000000  0.000000 -0.000000 -0.000000
  0C   4px       -0.000071 -0.000287 -0.000204  0.000083 -0.000229 -0.000258
  0C   4py        0.000109 -0.000176  0.000328  0.000036  0.000356  0.000395
  0C   1dz2       0.000115  0.000005  0.000192 -0.000010  0.000282 -0.000217
  0C   1dxz      -0.000000 -0.000000  0.000000 -0.000000 -0.000000  0.000000
  0C   1dyz      -0.000000  0.000000 -0.000000 -0.000000 -0.000000  0.000000
  0C   1dx2y2    -0.000026 -0.000097 -0.000031 -0.000054 -0.000017 -0.000017
  0C   1dxy      -0.000058  0.000040 -0.000078  0.000025 -0.000034 -0.000040
  1C   1s        -0.230005 -0.285414 -0.155743 -0.287555  0.152190 -0.229952
  1C   2s        -0.190439 -0.236355 -0.128973 -0.238191  0.126064 -0.190498
  1C   1pz       -0.000000 -0.000000 -0.000000 -0.000000  0.000000 -0.000000
  1C   1px        0.000014 -0.000077  0.000144  0.000028  0.000178 -0.000064
  1C   1py        0.000028  0.000043 -0.000071 -0.000142 -0.000022 -0.000127
  1C   3s        -0.002011 -0.002302 -0.001256 -0.002015  0.001066 -0.001546
  1C   2pz       -0.000000  0.000000 -0.000000  0.000000 -0.000000  0.000000
  1C   2px        0.000081 -0.000006  0.000148  0.000083  0.000068  0.000022
  1C   2py        0.000160  0.000146  0.000003  0.000049 -0.000082  0.000044
  1C   4s         0.000378  0.000160  0.000088  0.000294 -0.000155  0.001452
  1C   3pz        0.000000 -0.000000  0.000000  0.000000 -0.000000 -0.000000
  1C   3px       -0.000004  0.000095 -0.000201 -0.000117  0.000036 -0.000437
  1C   3py       -0.000008 -0.000077  0.000086 -0.000205  0.000122 -0.000864
  1C   5s        -0.000023 -0.000034 -0.000018 -0.001455  0.000772  0.002493
  1C   4pz       -0.000000 -0.000000 -0.000000 -0.000000  0.000000  0.000000
  1C   4px        0.000059  0.000009  0.000347  0.000131 -0.000160 -0.000213
  1C   4py        0.000117  0.000375  0.000031  0.000352 -0.000141 -0.000421
  1C   1dz2       0.000115  0.000169  0.000092  0.000249 -0.000132  0.000217
  1C   1dxz       0.000000 -0.000000  0.000000 -0.000000  0.000000  0.000000
  1C   1dyz      -0.000000 -0.000000 -0.000000  0.000000 -0.000000  0.000000
  1C   1dx2y2    -0.000038 -0.000003 -0.000098 -0.000043 -0.000032  0.000026
  1C   1dxy       0.000051  0.000089 -0.000022  0.000011 -0.000046 -0.000035
  2C   1s        -0.230112 -0.277543  0.169537  0.275635  0.172679  0.229849
  2C   2s        -0.190527 -0.229837  0.140396  0.228317  0.143036  0.190412
  2C   1pz       -0.000000 -0.000000 -0.000000 -0.000000  0.000000  0.000000
  2C   1px        0.000031  0.000009  0.000007  0.000115  0.000059  0.000142
  2C   1py        0.000002 -0.000095 -0.000156 -0.000095  0.000166  0.000008
  2C   3s        -0.002012 -0.002239  0.001367  0.001931  0.001210  0.001545
  2C   2pz        0.000000  0.000000  0.000000  0.000000  0.000000 -0.000000
  2C   2px        0.000179  0.000129 -0.000069 -0.000074 -0.000053 -0.000050
  2C   2py        0.000010 -0.000071 -0.000131 -0.000063  0.000091 -0.000003
  2C   4s         0.000378  0.000156 -0.000095 -0.000282 -0.000176 -0.001452
  2C   3pz       -0.000000 -0.000000 -0.000000 -0.000000 -0.000000  0.000000
  2C   3px       -0.000009 -0.000032  0.000004  0.000225  0.000143  0.000967
  2C   3py       -0.000001  0.000128  0.000213  0.000026 -0.000014  0.000054
  2C   5s        -0.000023 -0.000034  0.000020  0.001395  0.000874 -0.002493
  2C   4pz        0.000000  0.000000  0.000000  0.000000 -0.000000 -0.000000
  2C   4px        0.000131  0.000339 -0.000185 -0.000360 -0.000220  0.000472
  2C   4py        0.000007 -0.000157 -0.000298  0.000028 -0.000088  0.000026
  2C   1dz2       0.000115  0.000164 -0.000100 -0.000239 -0.000150 -0.000217
  2C   1dxz       0.000000  0.000000  0.000000  0.000000 -0.000000  0.000000
  2C   1dyz      -0.000000  0.000000  0.000000 -0.000000 -0.000000  0.000000
  2C   1dx2y2     0.000063  0.000065 -0.000053 -0.000036 -0.000015  0.000043
  2C   1dxy       0.000007  0.000062  0.000084  0.000028 -0.000053  0.000005
  3H   1s        -0.000176 -0.000215 -0.000117 -0.000214  0.000113 -0.000174
  3H   2s         0.000004  0.000069  0.000038  0.000119 -0.000063  0.000202
  3H   3s        -0.000193 -0.000162 -0.000088 -0.000073  0.000039  0.000092
  3H   1pz       -0.000000  0.000000 -0.000000 -0.000000  0.000000 -0.000000
  3H   1px        0.000014 -0.000011  0.000036  0.000005  0.000015 -0.000009
  3H   1py        0.000028  0.000022 -0.000009 -0.000008 -0.000005 -0.000017
  4C   1s        -0.229794  0.277517 -0.169541  0.275638  0.172695 -0.230179
  4C   2s        -0.190265  0.229815 -0.140399  0.228320  0.143049 -0.190685
  4C   1pz        0.000000 -0.000000  0.000000  0.000000  0.000000  0.000000
  4C   1px       -0.000031  0.000009  0.000006 -0.000115 -0.000059  0.000142
  4C   1py       -0.000002 -0.000095 -0.000156  0.000095 -0.000166  0.000008
  4C   3s        -0.002009  0.002239 -0.001368  0.001931  0.001210 -0.001548
  4C   2pz       -0.000000  0.000000 -0.000000 -0.000000 -0.000000  0.000000
  4C   2px       -0.000179  0.000129 -0.000069  0.000074  0.000054 -0.000050
  4C   2py       -0.000010 -0.000071 -0.000131  0.000063 -0.000091 -0.000003
  4C   4s         0.000378 -0.000156  0.000096 -0.000281 -0.000176  0.001453
  4C   3pz        0.000000 -0.000000  0.000000  0.000000 -0.000000 -0.000000
  4C   3px        0.000009 -0.000032  0.000004 -0.000224 -0.000142  0.000967
  4C   3py        0.000000  0.000128  0.000213 -0.000026  0.000014  0.000054
  4C   5s        -0.000023  0.000033 -0.000020  0.001397  0.000876  0.002492
  4C   4pz       -0.000000  0.000000 -0.000000 -0.000000  0.000000  0.000000
  4C   4px       -0.000130  0.000338 -0.000185  0.000361  0.000220  0.000471
  4C   4py       -0.000007 -0.000157 -0.000298 -0.000028  0.000088  0.000026
  4C   1dz2       0.000115 -0.000164  0.000100 -0.000239 -0.000150  0.000218
  4C   1dxz       0.000000 -0.000000  0.000000 -0.000000 -0.000000  0.000000
  4C   1dyz      -0.000000  0.000000 -0.000000  0.000000 -0.000000 -0.000000
  4C   1dx2y2     0.000063 -0.000065  0.000053 -0.000036 -0.000015 -0.000043
  4C   1dxy       0.000007 -0.000062 -0.000084  0.000028 -0.000053 -0.000005
  5H   1s        -0.000176 -0.000006 -0.000245  0.000009 -0.000242  0.000174
  5H   2s         0.000004  0.000002  0.000079 -0.000005  0.000134 -0.000202
  5H   3s        -0.000193 -0.000004 -0.000185  0.000003 -0.000082 -0.000092
  5H   1pz       -0.000000 -0.000000  0.000000  0.000000  0.000000  0.000000
  5H   1px       -0.000017 -0.000034 -0.000008 -0.000015  0.000003 -0.000010
  5H   1py        0.000027 -0.000022  0.000015 -0.000010 -0.000005  0.000016
  6C   1s        -0.229918  0.285675  0.155611 -0.287274  0.152344  0.230054
  6C   2s        -0.190367  0.236571  0.128863 -0.237958  0.126192  0.190582
  6C   1pz       -0.000000  0.000000  0.000000 -0.000000 -0.000000 -0.000000
  6C   1px       -0.000014 -0.000076  0.000144 -0.000029 -0.000178 -0.000064
  6C   1py       -0.000028  0.000043 -0.000071  0.000142  0.000022 -0.000127
  6C   3s        -0.002010  0.002304  0.001255 -0.002013  0.001067  0.001547
  6C   2pz        0.000000 -0.000000 -0.000000  0.000000 -0.000000  0.000000
  6C   2px       -0.000081 -0.000006  0.000148 -0.000083 -0.000068  0.000022
  6C   2py       -0.000160  0.000147  0.000003 -0.000048  0.000082  0.000044
  6C   4s         0.000378 -0.000160 -0.000088  0.000293 -0.000156 -0.001452
  6C   3pz       -0.000000  0.000000 -0.000000 -0.000000  0.000000 -0.000000
  6C   3px        0.000004  0.000095 -0.000201  0.000117 -0.000036 -0.000437
  6C   3py        0.000008 -0.000077  0.000086  0.000204 -0.000122 -0.000864
  6C   5s        -0.000022  0.000035  0.000018 -0.001457  0.000771 -0.002492
  6C   4pz        0.000000 -0.000000  0.000000  0.000000 -0.000000 -0.000000
  6C   4px       -0.000059  0.000009  0.000347 -0.000131  0.000160 -0.000213
  6C   4py       -0.000116  0.000375  0.000031 -0.000352  0.000141 -0.000421
  6C   1dz2       0.000115 -0.000169 -0.000092  0.000249 -0.000132 -0.000217
  6C   1dxz      -0.000000 -0.000000 -0.000000 -0.000000  0.000000  0.000000
  6C   1dyz       0.000000 -0.000000 -0.000000  0.000000  0.000000 -0.000000
  6C   1dx2y2    -0.000038  0.000003  0.000098 -0.000043 -0.000032 -0.000026
  6C   1dxy       0.000051 -0.000089  0.000022  0.000011 -0.000046  0.000035
  7H   1s        -0.000176  0.000209 -0.000128  0.000205  0.000129 -0.000174
  7H   2s         0.000004 -0.000067  0.000041 -0.000114 -0.000071  0.000202
  7H   3s        -0.000193  0.000158 -0.000096  0.000070  0.000044  0.000092
  7H   1pz       -0.000000 -0.000000 -0.000000  0.000000  0.000000 -0.000000
  7H   1px       -0.000032  0.000016 -0.000007 -0.000005 -0.000002  0.000019
  7H   1py       -0.000002 -0.000020 -0.000035  0.000009 -0.000015  0.000001
  8C   1s        -0.229876  0.008124  0.324940  0.011675 -0.325229 -0.230092
  8C   2s        -0.190332  0.006728  0.269086  0.009671 -0.269398 -0.190614
  8C   1pz        0.000000  0.000000 -0.000000  0.000000  0.000000  0.000000
  8C   1px        0.000017 -0.000153  0.000001  0.000162 -0.000065 -0.000078
  8C   1py       -0.000026 -0.000100  0.000006  0.000101  0.000112  0.000119
  8C   3s        -0.002010  0.000066  0.002621  0.000082 -0.002279 -0.001547
  8C   2pz       -0.000000  0.000000 -0.000000 -0.000000 -0.000000 -0.000000
  8C   2px        0.000098 -0.000127 -0.000077  0.000091  0.000053  0.000027
  8C   2py       -0.000150 -0.000078  0.000124  0.000063 -0.000074 -0.000042
  8C   4s         0.000378 -0.000005 -0.000182 -0.000011  0.000332  0.001452
  8C   3pz        0.000000 -0.000000  0.000000  0.000000  0.000000 -0.000000
  8C   3px       -0.000005  0.000209  0.000011 -0.000017 -0.000147 -0.000530
  8C   3py        0.000008  0.000135 -0.000028 -0.000022  0.000223  0.000810
  8C   5s        -0.000022  0.000001  0.000040  0.000061 -0.001646  0.002493
  8C   4pz       -0.000000 -0.000000 -0.000000 -0.000000  0.000000  0.000000
  8C   4px        0.000071 -0.000287 -0.000204 -0.000083  0.000229 -0.000258
  8C   4py       -0.000109 -0.000176  0.000327 -0.000036 -0.000356  0.000395
  8C   1dz2       0.000115 -0.000005 -0.000192 -0.000010  0.000282  0.000217
  8C   1dxz      -0.000000  0.000000 -0.000000 -0.000000 -0.000000  0.000000
  8C   1dyz      -0.000000  0.000000  0.000000  0.000000  0.000000 -0.000000
  8C   1dx2y2    -0.000025  0.000097  0.000031 -0.000054 -0.000017  0.000017
  8C   1dxy      -0.000058 -0.000040  0.000078  0.000025 -0.000034  0.000040
  9H   1s        -0.000176 -0.000209  0.000128  0.000205  0.000129  0.000174
  9H   2s         0.000004  0.000067 -0.000041 -0.000114 -0.000071 -0.000202
  9H   3s        -0.000193 -0.000158  0.000096  0.000070  0.000044 -0.000092
  9H   1pz       -0.000000 -0.000000 -0.000000 -0.000000  0.000000 -0.000000
  9H   1px        0.000032  0.000016 -0.000007  0.000005  0.000002  0.000019
  9H   1py        0.000002 -0.000020 -0.000035 -0.000009  0.000015  0.000001
 10H   1s        -0.000176  0.000215  0.000117 -0.000214  0.000114  0.000174
 10H   2s         0.000004 -0.000069 -0.000038  0.000118 -0.000063 -0.000202
 10H   3s        -0.000193  0.000162  0.000088 -0.000073  0.000039 -0.000092
 10H   1pz        0.000000 -0.000000 -0.000000  0.000000  0.000000  0.000000
 10H   1px       -0.000014 -0.000011  0.000036 -0.000005 -0.000015 -0.000009
 10H   1py       -0.000028  0.000022 -0.000009  0.000008  0.000005 -0.000017
 11H   1s        -0.000176  0.000006  0.000245  0.000009 -0.000242 -0.000174
 11H   2s         0.000004 -0.000002 -0.000079 -0.000005  0.000134  0.000202
 11H   3s        -0.000193  0.000005  0.000185  0.000003 -0.000082  0.000092
 11H   1pz        0.000000 -0.000000 -0.000000 -0.000000  0.000000 -0.000000
 11H   1px        0.000017 -0.000034 -0.000008  0.000015 -0.000003 -0.000010
 11H   1py       -0.000027 -0.000022  0.000015  0.000010  0.000005  0.000016
                      6         7         8         9        10        11   
                  -1.14959  -1.01525  -1.01525  -0.82508  -0.82508  -0.71009
                   2.00000   2.00000   2.00000   2.00000   2.00000   2.00000
                  --------  --------  --------  --------  --------  --------
  0C   1s         0.049299  0.067949 -0.008345  0.013846 -0.051877 -0.004203
  0C   2s         0.081006  0.111878 -0.013740  0.023041 -0.086324 -0.006855
  0C   1pz        0.000000  0.000000  0.000000  0.000000 -0.000000 -0.000000
  0C   1px       -0.014265 -0.001810  0.041206  0.076160  0.005055 -0.046764
  0C   1py        0.021822  0.013598  0.025124  0.041482  0.034434  0.071531
  0C   3s        -0.204182 -0.282942  0.034750 -0.059418  0.222617  0.015681
  0C   2pz        0.000000  0.000000 -0.000000  0.000000 -0.000000 -0.000000
  0C   2px       -0.025002 -0.002556  0.071874  0.120407  0.007834 -0.071464
  0C   2py        0.038246  0.022818  0.043981  0.065496  0.054660  0.109312
  0C   4s        -0.099978 -0.164617  0.020218 -0.046071  0.172614  0.032560
  0C   3pz       -0.000000 -0.000000  0.000000  0.000000 -0.000000 -0.000000
  0C   3px       -0.003468 -0.003851  0.015313  0.039100  0.006917 -0.034656
  0C   3py        0.005305  0.009812  0.008497  0.023648  0.011695  0.053010
  0C   5s        -0.001096 -0.005833  0.000718  0.043157 -0.161687  0.004420
  0C   4pz       -0.000000 -0.000000  0.000000  0.000000  0.000000  0.000000
  0C   4px        0.003702  0.007716 -0.015677  0.008069 -0.026361 -0.000474
  0C   4py       -0.005665 -0.015695 -0.007702 -0.010237  0.040884  0.000728
  0C   1dz2       0.009554  0.010608 -0.001303  0.001870 -0.007006  0.000643
  0C   1dxz      -0.000000 -0.000000  0.000000 -0.000000  0.000000 -0.000000
  0C   1dyz       0.000000  0.000000 -0.000000 -0.000000  0.000000  0.000000
  0C   1dx2y2    -0.001668 -0.000461  0.016041  0.012631  0.003319  0.000668
  0C   1dxy      -0.003811 -0.006316 -0.006225 -0.005496 -0.001585  0.001525
  1C   1s         0.049298  0.026746 -0.063019 -0.051851  0.013947 -0.004204
  1C   2s         0.081005  0.044038 -0.103761 -0.086280  0.023207 -0.006856
  1C   1pz        0.000000 -0.000000  0.000000 -0.000000  0.000000  0.000000
  1C   1px        0.011765  0.042119  0.011767 -0.008988 -0.080263  0.038567
  1C   1py        0.023265 -0.015842 -0.018808  0.033727  0.032738  0.076265
  1C   3s        -0.204178 -0.111374  0.262414  0.222503 -0.059848  0.015685
  1C   2pz       -0.000000 -0.000000  0.000000  0.000000  0.000000  0.000000
  1C   2px        0.020620  0.073346  0.021007 -0.014076 -0.126885  0.058937
  1C   2py        0.040776 -0.028049 -0.031925  0.053558  0.051673  0.116547
  1C   4s        -0.099977 -0.064798  0.152675  0.172524 -0.046405  0.032565
  1C   3pz        0.000000  0.000000 -0.000000 -0.000000 -0.000000  0.000000
  1C   3px        0.002860  0.016288  0.001816 -0.008249 -0.041460  0.028580
  1C   3py        0.005656 -0.003685 -0.011644  0.010895  0.019157  0.056518
  1C   5s        -0.001105 -0.002296  0.005411 -0.161601  0.043466  0.004404
  1C   4pz        0.000000  0.000000 -0.000000 -0.000000  0.000000 -0.000000
  1C   4px       -0.003053 -0.017432  0.001176  0.021665 -0.006930  0.000395
  1C   4py       -0.006036  0.001158  0.017446  0.043527 -0.011150  0.000778
  1C   1dz2       0.009554  0.004176 -0.009839 -0.007002  0.001883  0.000642
  1C   1dxz       0.000000  0.000000  0.000000  0.000000 -0.000000  0.000000
  1C   1dyz       0.000000 -0.000000  0.000000  0.000000  0.000000  0.000000
  1C   1dx2y2    -0.002466 -0.014234 -0.002169  0.002911  0.011108  0.000986
  1C   1dxy       0.003350 -0.007557 -0.008470  0.002292  0.008134 -0.001341
  2C   1s         0.049298 -0.041201 -0.054673  0.038004  0.037930 -0.004203
  2C   2s         0.081004 -0.067838 -0.090020  0.063239  0.063116 -0.006855
  2C   1pz        0.000000 -0.000000 -0.000000  0.000000 -0.000000  0.000000
  2C   1px        0.026030 -0.005341 -0.011559 -0.022558 -0.015513  0.085329
  2C   1py        0.001444 -0.039167  0.028653  0.062050 -0.064283  0.004733
  2C   3s        -0.204178  0.171565  0.227663 -0.163084 -0.162767  0.015683
  2C   2pz        0.000000 -0.000000 -0.000000  0.000000 -0.000000  0.000000
  2C   2px        0.045623 -0.008657 -0.019296 -0.035860 -0.024727  0.130398
  2C   2py        0.002531 -0.068351  0.050079  0.098055 -0.101607  0.007233
  2C   4s        -0.099976  0.099817  0.132457 -0.126452 -0.126208  0.032562
  2C   3pz       -0.000000 -0.000000  0.000000  0.000000  0.000000  0.000000
  2C   3px        0.006328 -0.005470 -0.008878 -0.006240 -0.002530  0.063235
  2C   3py        0.000351 -0.014378  0.010115  0.033096 -0.033646  0.003508
  2C   5s        -0.001095  0.003538  0.004693  0.118445  0.118218  0.004418
  2C   4pz       -0.000000 -0.000000  0.000000  0.000000 -0.000000  0.000000
  2C   4px       -0.006756  0.009737  0.014528 -0.035628 -0.035466  0.000868
  2C   4py       -0.000374  0.014511 -0.009723 -0.001133 -0.002812  0.000048
  2C   1dz2       0.009554 -0.006432 -0.008536  0.005132  0.005122  0.000643
  2C   1dxz      -0.000000  0.000000 -0.000000  0.000000 -0.000000 -0.000000
  2C   1dyz      -0.000000  0.000000  0.000000 -0.000000 -0.000000 -0.000000
  2C   1dx2y2     0.004134 -0.005127 -0.003621  0.001026 -0.001204 -0.001655
  2C   1dxy       0.000460  0.013347 -0.010891 -0.010020  0.010019 -0.000184
  3H   1s        -0.021642 -0.018302  0.043122  0.066314 -0.017837  0.067443
  3H   2s        -0.029854 -0.025453  0.059972  0.097666 -0.026270  0.100244
  3H   3s         0.012863  0.002271 -0.005351  0.007699 -0.002071  0.013016
  3H   1pz       -0.000000 -0.000000  0.000000  0.000000 -0.000000  0.000000
  3H   1px        0.003205  0.004391 -0.004097 -0.007003 -0.001812 -0.005172
  3H   1py        0.006339  0.003103 -0.010471 -0.011547  0.004975 -0.010227
  4C   1s         0.049300  0.041202  0.054672  0.038003  0.037930 -0.004204
  4C   2s         0.081007  0.067840  0.090018  0.063237  0.063117 -0.006857
  4C   1pz       -0.000000 -0.000000 -0.000000 -0.000000 -0.000000  0.000000
  4C   1px       -0.026031 -0.005341 -0.011559  0.022557  0.015513 -0.085331
  4C   1py       -0.001445 -0.039169  0.028652 -0.062051  0.064285 -0.004734
  4C   3s        -0.204183 -0.171568 -0.227658 -0.163079 -0.162768  0.015687
  4C   2pz       -0.000000 -0.000000 -0.000000 -0.000000 -0.000000 -0.000000
  4C   2px       -0.045624 -0.008657 -0.019295  0.035860  0.024726 -0.130401
  4C   2py       -0.002531 -0.068354  0.050077 -0.098055  0.101610 -0.007234
  4C   4s        -0.099979 -0.099819 -0.132453 -0.126448 -0.126209  0.032567
  4C   3pz        0.000000  0.000000  0.000000  0.000000  0.000000  0.000000
  4C   3px       -0.006328 -0.005470 -0.008878  0.006240  0.002529 -0.063236
  4C   3py       -0.000351 -0.014378  0.010114 -0.033095  0.033646 -0.003508
  4C   5s        -0.001106 -0.003539 -0.004694  0.118445  0.118220  0.004406
  4C   4pz        0.000000  0.000000  0.000000 -0.000000  0.000000 -0.000000
  4C   4px        0.006755  0.009737  0.014528  0.035627  0.035466 -0.000871
  4C   4py        0.000374  0.014510 -0.009722  0.001132  0.002812 -0.000048
  4C   1dz2       0.009554  0.006433  0.008536  0.005132  0.005123  0.000642
  4C   1dxz      -0.000000  0.000000 -0.000000  0.000000  0.000000 -0.000000
  4C   1dyz      -0.000000 -0.000000 -0.000000 -0.000000 -0.000000  0.000000
  4C   1dx2y2     0.004135  0.005128  0.003621  0.001026 -0.001204 -0.001654
  4C   1dxy       0.000460 -0.013347  0.010891 -0.010020  0.010020 -0.000184
  5H   1s        -0.021643 -0.046495  0.005711 -0.017707  0.066348  0.067441
  5H   2s        -0.029854 -0.064663  0.007942 -0.026079  0.097717  0.100242
  5H   3s         0.012863  0.005769 -0.000709 -0.002056  0.007704  0.013015
  5H   1pz        0.000000  0.000000 -0.000000  0.000000 -0.000000 -0.000000
  5H   1px       -0.003887 -0.006325  0.003084  0.001267  0.008235  0.006271
  5H   1py        0.005946  0.010284  0.000245  0.005124 -0.010712 -0.009592
  6C   1s         0.049299 -0.026748  0.063017 -0.051850  0.013947 -0.004203
  6C   2s         0.081006 -0.044041  0.103758 -0.086280  0.023209 -0.006855
  6C   1pz        0.000000 -0.000000  0.000000 -0.000000 -0.000000  0.000000
  6C   1px       -0.011766  0.042121  0.011766  0.008988  0.080263 -0.038566
  6C   1py       -0.023265 -0.015842 -0.018807 -0.033725 -0.032739 -0.076263
  6C   3s        -0.204182  0.111380 -0.262408  0.222501 -0.059851  0.015683
  6C   2pz        0.000000 -0.000000  0.000000 -0.000000 -0.000000  0.000000
  6C   2px       -0.020620  0.073348  0.021006  0.014075  0.126886 -0.058936
  6C   2py       -0.040776 -0.028049 -0.031925 -0.053555 -0.051674 -0.116544
  6C   4s        -0.099978  0.064802 -0.152671  0.172525 -0.046408  0.032562
  6C   3pz       -0.000000 -0.000000 -0.000000 -0.000000 -0.000000  0.000000
  6C   3px       -0.002860  0.016289  0.001816  0.008248  0.041460 -0.028580
  6C   3py       -0.005656 -0.003684 -0.011644 -0.010894 -0.019158 -0.056517
  6C   5s        -0.001096  0.002296 -0.005410 -0.161602  0.043470  0.004419
  6C   4pz       -0.000000 -0.000000 -0.000000  0.000000 -0.000000  0.000000
  6C   4px        0.003054 -0.017432  0.001175 -0.021664  0.006930 -0.000393
  6C   4py        0.006039  0.001158  0.017446 -0.043527  0.011151 -0.000776
  6C   1dz2       0.009554 -0.004176  0.009838 -0.007002  0.001884  0.000643
  6C   1dxz       0.000000 -0.000000  0.000000 -0.000000 -0.000000  0.000000
  6C   1dyz      -0.000000  0.000000 -0.000000  0.000000  0.000000  0.000000
  6C   1dx2y2    -0.002466  0.014234  0.002168  0.002911  0.011108  0.000987
  6C   1dxy       0.003351  0.007557  0.008470  0.002292  0.008134 -0.001341
  7H   1s        -0.021643 -0.028193 -0.037410 -0.048603 -0.048510  0.067443
  7H   2s        -0.029854 -0.039209 -0.052028 -0.071582 -0.071445  0.100245
  7H   3s         0.012863  0.003498  0.004642 -0.005643 -0.005632  0.013016
  7H   1pz       -0.000000 -0.000000 -0.000000 -0.000000 -0.000000  0.000000
  7H   1px       -0.007092 -0.007186 -0.009787 -0.009697 -0.009991  0.011443
  7H   1py       -0.000393 -0.002587  0.001106 -0.003368  0.002281  0.000635
  8C   1s         0.049299 -0.067949  0.008345  0.013847 -0.051877 -0.004204
  8C   2s         0.081006 -0.111878  0.013741  0.023042 -0.086324 -0.006856
  8C   1pz       -0.000000  0.000000 -0.000000 -0.000000 -0.000000 -0.000000
  8C   1px        0.014266 -0.001812  0.041206 -0.076161 -0.005055  0.046764
  8C   1py       -0.021821  0.013596  0.025123 -0.041481 -0.034434 -0.071532
  8C   3s        -0.204181  0.282944 -0.034750 -0.059421  0.222615  0.015685
  8C   2pz        0.000000 -0.000000  0.000000 -0.000000 -0.000000 -0.000000
  8C   2px        0.025004 -0.002559  0.071874 -0.120409 -0.007833  0.071464
  8C   2py       -0.038245  0.022816  0.043980 -0.065494 -0.054660 -0.109314
  8C   4s        -0.099978  0.164618 -0.020218 -0.046075  0.172612  0.032565
  8C   3pz        0.000000  0.000000 -0.000000  0.000000 -0.000000 -0.000000
  8C   3px        0.003468 -0.003852  0.015313 -0.039101 -0.006917  0.034656
  8C   3py       -0.005305  0.009812  0.008496 -0.023648 -0.011695 -0.053010
  8C   5s        -0.001106  0.005834 -0.000717  0.043156 -0.161687  0.004406
  8C   4pz        0.000000  0.000000 -0.000000 -0.000000  0.000000 -0.000000
  8C   4px       -0.003702  0.007717 -0.015677 -0.008069  0.026361  0.000477
  8C   4py        0.005662 -0.015694 -0.007702  0.010237 -0.040884 -0.000730
  8C   1dz2       0.009554 -0.010608  0.001303  0.001870 -0.007006  0.000642
  8C   1dxz      -0.000000  0.000000 -0.000000  0.000000  0.000000 -0.000000
  8C   1dyz       0.000000  0.000000 -0.000000  0.000000  0.000000  0.000000
  8C   1dx2y2    -0.001669  0.000461 -0.016041  0.012631  0.003319  0.000668
  8C   1dxy      -0.003811  0.006316  0.006225 -0.005497 -0.001585  0.001525
  9H   1s        -0.021642  0.028192  0.037411 -0.048604 -0.048510  0.067440
  9H   2s        -0.029854  0.039209  0.052029 -0.071584 -0.071445  0.100241
  9H   3s         0.012862 -0.003498 -0.004642 -0.005643 -0.005632  0.013015
  9H   1pz        0.000000  0.000000 -0.000000  0.000000  0.000000 -0.000000
  9H   1px        0.007092 -0.007186 -0.009787  0.009697  0.009991 -0.011442
  9H   1py        0.000393 -0.002587  0.001106  0.003367 -0.002281 -0.000635
 10H   1s        -0.021642  0.018302 -0.043120  0.066312 -0.017837  0.067440
 10H   2s        -0.029854  0.025454 -0.059969  0.097664 -0.026271  0.100241
 10H   3s         0.012862 -0.002271  0.005350  0.007699 -0.002071  0.013015
 10H   1pz        0.000000  0.000000  0.000000 -0.000000  0.000000 -0.000000
 10H   1px       -0.003205  0.004391 -0.004097  0.007003  0.001812  0.005171
 10H   1py       -0.006339  0.003103 -0.010471  0.011547 -0.004975  0.010227
 11H   1s        -0.021643  0.046495 -0.005710 -0.017710  0.066347  0.067443
 11H   2s        -0.029854  0.064663 -0.007942 -0.026083  0.097716  0.100244
 11H   3s         0.012863 -0.005769  0.000708 -0.002056  0.007704  0.013016
 11H   1pz        0.000000 -0.000000  0.000000  0.000000 -0.000000 -0.000000
 11H   1px        0.003887 -0.006325  0.003084 -0.001267 -0.008235 -0.006271
 11H   1py       -0.005945  0.010284  0.000245 -0.005124  0.010711  0.009592
                     12        13        14        15        16        17   
                  -0.64663  -0.61905  -0.58961  -0.58961  -0.50012  -0.49661
                   2.00000   2.00000   2.00000   2.00000   2.00000   2.00000
                  --------  --------  --------  --------  --------  --------
  0C   1s         0.030305 -0.000001 -0.010697 -0.000245 -0.000000 -0.000954
  0C   2s         0.050705 -0.000002 -0.017869 -0.000409 -0.000000 -0.001621
  0C   1pz       -0.000000 -0.000000 -0.000000  0.000000 -0.090348 -0.000000
  0C   1px        0.031320 -0.101302  0.070132  0.032746  0.000000 -0.066241
  0C   1py       -0.047918 -0.066231 -0.108830  0.017866  0.000000 -0.090165
  0C   3s        -0.130742  0.000004  0.051599  0.001180  0.000000  0.005704
  0C   2pz       -0.000000 -0.000000 -0.000000  0.000000 -0.156738 -0.000000
  0C   2px        0.048837 -0.159228  0.107571  0.056175  0.000000 -0.100233
  0C   2py       -0.074718 -0.104101 -0.167222  0.031285  0.000000 -0.138002
  0C   4s        -0.148992  0.000003  0.027563  0.000630  0.000000  0.002006
  0C   3pz       -0.000000 -0.000000  0.000000  0.000000 -0.114678 -0.000000
  0C   3px        0.024331 -0.074046  0.067224  0.015186 -0.000000 -0.050153
  0C   3py       -0.037224 -0.048412 -0.103506  0.006551 -0.000000 -0.098295
  0C   5s         0.184745 -0.000008 -0.052049 -0.001188 -0.000000 -0.010207
  0C   4pz        0.000000  0.000000 -0.000000 -0.000000 -0.004183 -0.000000
  0C   4px        0.023386  0.005325  0.004401  0.025655 -0.000000  0.000055
  0C   4py       -0.035772  0.003482 -0.008011  0.016522  0.000000 -0.001458
  0C   1dz2       0.003156  0.000000  0.000474  0.000011 -0.000000  0.000168
  0C   1dxz      -0.000000 -0.000000  0.000000  0.000000 -0.008161  0.000000
  0C   1dyz       0.000000 -0.000000 -0.000000  0.000000  0.012483  0.000000
  0C   1dx2y2     0.008555 -0.010396  0.003589  0.019288  0.000000 -0.011590
  0C   1dxy       0.019536  0.004553  0.009390 -0.008196 -0.000000  0.019041
  1C   1s        -0.030305  0.000001 -0.005136 -0.009387 -0.000000  0.002386
  1C   2s        -0.050705  0.000001 -0.008580 -0.015680 -0.000000  0.004053
  1C   1pz        0.000000 -0.000000  0.000000 -0.000000 -0.090346 -0.000000
  1C   1px        0.025836  0.108004 -0.057172 -0.035331 -0.000000  0.055986
  1C   1py        0.051083 -0.054616 -0.040750 -0.109439  0.000000  0.081631
  1C   3s         0.130742 -0.000003  0.024777  0.045279  0.000000 -0.014265
  1C   2pz        0.000000 -0.000000  0.000000 -0.000000 -0.156735 -0.000000
  1C   2px        0.040286  0.169762 -0.093308 -0.051246 -0.000000  0.086294
  1C   2py        0.079654 -0.085846 -0.059796 -0.169595 -0.000000  0.126402
  1C   4s         0.148991 -0.000004  0.013237  0.024188  0.000000 -0.005017
  1C   3pz        0.000000 -0.000000 -0.000000 -0.000000 -0.114676  0.000000
  1C   3px        0.020070  0.078947 -0.039504 -0.041887 -0.000000  0.072597
  1C   3py        0.039683 -0.039921 -0.046430 -0.100178  0.000000  0.116982
  1C   5s        -0.184742  0.000008 -0.024995 -0.045679  0.000000  0.025519
  1C   4pz       -0.000000 -0.000000  0.000000  0.000000 -0.004183  0.000000
  1C   4px        0.019286 -0.005674 -0.025868  0.009467 -0.000000  0.001497
  1C   4py        0.038139  0.002868  0.008179 -0.013746 -0.000000  0.002751
  1C   1dz2      -0.003156  0.000000  0.000228  0.000416  0.000000 -0.000421
  1C   1dxz       0.000000  0.000000 -0.000000 -0.000000  0.006730  0.000000
  1C   1dyz       0.000000 -0.000000 -0.000000 -0.000000  0.013309  0.000000
  1C   1dx2y2    -0.012641 -0.009140  0.017668 -0.002882  0.000000 -0.020808
  1C   1dxy       0.017177 -0.006727  0.007016 -0.013061 -0.000000  0.024418
  2C   1s         0.030305 -0.000001  0.005561 -0.009141  0.000000 -0.001433
  2C   2s         0.050705 -0.000001  0.009289 -0.015270  0.000000 -0.002433
  2C   1pz        0.000000  0.000000  0.000000 -0.000000 -0.090346 -0.000000
  2C   1px       -0.057158 -0.006697  0.065438 -0.111541  0.000000 -0.053724
  2C   1py       -0.003168  0.120844  0.035453  0.013177 -0.000000 -0.094781
  2C   3s        -0.130743  0.000003 -0.026824  0.044095 -0.000000  0.008564
  2C   2pz        0.000000  0.000000  0.000000 -0.000000 -0.156735 -0.000000
  2C   2px       -0.089125 -0.010527  0.100163 -0.171501  0.000000 -0.083219
  2C   2py       -0.004940  0.189943  0.060448  0.023887  0.000000 -0.144278
  2C   4s        -0.148993  0.000004 -0.014329  0.023555  0.000000  0.003012
  2C   3pz        0.000000  0.000000  0.000000  0.000000 -0.114676 -0.000000
  2C   3px       -0.044402 -0.004895  0.063287 -0.105780  0.000000 -0.077559
  2C   3py       -0.002461  0.088332  0.017456  0.002621 -0.000000 -0.088203
  2C   5s         0.184744 -0.000008  0.027059 -0.044478 -0.000000 -0.015319
  2C   4pz        0.000000  0.000000  0.000000 -0.000000 -0.004183 -0.000000
  2C   4px       -0.042673  0.000354  0.003285 -0.008655  0.000000 -0.001840
  2C   4py       -0.002367 -0.006353  0.026299  0.015407 -0.000000 -0.000761
  2C   1dz2       0.003156 -0.000000 -0.000247  0.000405 -0.000000  0.000253
  2C   1dxz       0.000000  0.000000 -0.000000  0.000000  0.014891  0.000000
  2C   1dyz      -0.000000 -0.000000 -0.000000  0.000000  0.000826  0.000000
  2C   1dx2y2    -0.021196  0.001256  0.007168 -0.007324  0.000000 -0.020855
  2C   1dxy      -0.002359 -0.011279 -0.017221 -0.011776  0.000000  0.013747
  3H   1s         0.081135 -0.000000 -0.047151 -0.086170 -0.000000  0.094717
  3H   2s         0.123965 -0.000000 -0.074403 -0.135973 -0.000000  0.150793
  3H   3s         0.030031 -0.000001 -0.017567 -0.032104 -0.000000  0.054058
  3H   1pz        0.000000 -0.000000 -0.000000 -0.000000 -0.006708  0.000000
  3H   1px       -0.004664  0.004888  0.000447  0.006500 -0.000000 -0.003056
  3H   1py       -0.009223 -0.002472  0.006826  0.009602 -0.000000 -0.007746
  4C   1s        -0.030305  0.000001 -0.005560  0.009141 -0.000000 -0.001431
  4C   2s        -0.050705  0.000001 -0.009289  0.015270 -0.000000 -0.002431
  4C   1pz        0.000000  0.000000 -0.000000 -0.000000 -0.090348 -0.000000
  4C   1px       -0.057154 -0.006699  0.065441 -0.111540 -0.000000  0.053721
  4C   1py       -0.003167  0.120847  0.035453  0.013173 -0.000000  0.094779
  4C   3s         0.130742 -0.000003  0.026822 -0.044094  0.000000  0.008559
  4C   2pz        0.000000  0.000000 -0.000000 -0.000000 -0.156739 -0.000000
  4C   2px       -0.089120 -0.010529  0.100168 -0.171501 -0.000000  0.083214
  4C   2py       -0.004938  0.189948  0.060448  0.023881 -0.000000  0.144273
  4C   4s         0.148992 -0.000006  0.014326 -0.023554 -0.000000  0.003005
  4C   3pz        0.000000  0.000000 -0.000000 -0.000000 -0.114678 -0.000000
  4C   3px       -0.044399 -0.004896  0.063290 -0.105780 -0.000000  0.077556
  4C   3py       -0.002460  0.088333  0.017456  0.002617 -0.000000  0.088200
  4C   5s        -0.184748  0.000007 -0.027057  0.044479  0.000000 -0.015304
  4C   4pz       -0.000000  0.000000 -0.000000  0.000000 -0.004183  0.000000
  4C   4px       -0.042673  0.000354  0.003286 -0.008655  0.000000  0.001842
  4C   4py       -0.002367 -0.006347  0.026298  0.015407  0.000000  0.000760
  4C   1dz2      -0.003156  0.000000  0.000247 -0.000405  0.000000  0.000253
  4C   1dxz      -0.000000 -0.000000  0.000000 -0.000000 -0.014891  0.000000
  4C   1dyz      -0.000000  0.000000 -0.000000  0.000000 -0.000826 -0.000000
  4C   1dx2y2     0.021196 -0.001256 -0.007169  0.007324  0.000000 -0.020855
  4C   1dxy       0.002359  0.011280  0.017221  0.011776  0.000000  0.013746
  5H   1s        -0.081135 -0.000002 -0.098200 -0.002249 -0.000000 -0.037865
  5H   2s        -0.123965 -0.000003 -0.154957 -0.003549 -0.000000 -0.060283
  5H   3s        -0.030031  0.000000 -0.036586 -0.000838  0.000000 -0.021610
  5H   1pz        0.000000 -0.000000  0.000000 -0.000000 -0.006708 -0.000000
  5H   1px       -0.005655 -0.004585 -0.007231  0.002393 -0.000000 -0.006950
  5H   1py        0.008650 -0.002997  0.010933  0.001923  0.000000 -0.000583
  6C   1s         0.030305 -0.000001  0.005136  0.009386  0.000000  0.002386
  6C   2s         0.050705 -0.000001  0.008580  0.015680  0.000000  0.004052
  6C   1pz        0.000000 -0.000000  0.000000  0.000000 -0.090348  0.000000
  6C   1px        0.025835  0.108005 -0.057175 -0.035331  0.000000 -0.055989
  6C   1py        0.051084 -0.054619 -0.040751 -0.109436 -0.000000 -0.081632
  6C   3s        -0.130743  0.000003 -0.024775 -0.045277 -0.000000 -0.014264
  6C   2pz        0.000000 -0.000000  0.000000  0.000000 -0.156738  0.000000
  6C   2px        0.040285  0.169763 -0.093314 -0.051246  0.000000 -0.086297
  6C   2py        0.079655 -0.085851 -0.059798 -0.169590 -0.000000 -0.126404
  6C   4s        -0.148993  0.000003 -0.013232 -0.024187 -0.000000 -0.005013
  6C   3pz        0.000000 -0.000000  0.000000  0.000000 -0.114678  0.000000
  6C   3px        0.020070  0.078947 -0.039507 -0.041888  0.000000 -0.072600
  6C   3py        0.039684 -0.039925 -0.046431 -0.100174 -0.000000 -0.116985
  6C   5s         0.184746 -0.000009  0.024990  0.045676 -0.000000  0.025507
  6C   4pz        0.000000  0.000000  0.000000 -0.000000 -0.004183 -0.000000
  6C   4px        0.019286 -0.005679 -0.025868  0.009466 -0.000000 -0.001497
  6C   4py        0.038140  0.002870  0.008177 -0.013747 -0.000000 -0.002754
  6C   1dz2       0.003156 -0.000000 -0.000228 -0.000416 -0.000000 -0.000421
  6C   1dxz      -0.000000 -0.000000  0.000000  0.000000 -0.006730  0.000000
  6C   1dyz       0.000000  0.000000  0.000000  0.000000 -0.013309 -0.000000
  6C   1dx2y2     0.012640  0.009140 -0.017669  0.002882  0.000000 -0.020808
  6C   1dxy      -0.017177  0.006727 -0.007016  0.013060 -0.000000  0.024419
  7H   1s         0.081132 -0.000004 -0.051050  0.083921  0.000000 -0.056851
  7H   2s         0.123960 -0.000007 -0.080555  0.132424  0.000000 -0.090509
  7H   3s         0.030030 -0.000002 -0.019020  0.031266 -0.000000 -0.032447
  7H   1pz        0.000000  0.000000 -0.000000  0.000000 -0.006708 -0.000000
  7H   1px        0.010319 -0.000304 -0.006948  0.011096  0.000000 -0.005266
  7H   1py        0.000572  0.005469  0.002230  0.002206 -0.000000  0.005084
  8C   1s        -0.030305  0.000001  0.010697  0.000245  0.000000 -0.000954
  8C   2s        -0.050705  0.000002  0.017869  0.000409  0.000000 -0.001620
  8C   1pz       -0.000000 -0.000000 -0.000000 -0.000000 -0.090347 -0.000000
  8C   1px        0.031322 -0.101304  0.070135  0.032745 -0.000000  0.066242
  8C   1py       -0.047914 -0.066227 -0.108830  0.017862 -0.000000  0.090170
  8C   3s         0.130742 -0.000004 -0.051600 -0.001182 -0.000000  0.005703
  8C   2pz       -0.000000 -0.000000 -0.000000 -0.000000 -0.156737 -0.000000
  8C   2px        0.048840 -0.159230  0.107574  0.056175 -0.000000  0.100234
  8C   2py       -0.074712 -0.104096 -0.167223  0.031280 -0.000000  0.138010
  8C   4s         0.148991 -0.000006 -0.027564 -0.000630 -0.000000  0.002006
  8C   3pz       -0.000000 -0.000000 -0.000000 -0.000000 -0.114677 -0.000000
  8C   3px        0.024332 -0.074048  0.067225  0.015186 -0.000000  0.050152
  8C   3py       -0.037221 -0.048409 -0.103507  0.006548  0.000000  0.098300
  8C   5s        -0.184745  0.000010  0.052052  0.001191  0.000000 -0.010197
  8C   4pz       -0.000000 -0.000000 -0.000000  0.000000 -0.004183  0.000000
  8C   4px        0.023386  0.005319  0.004401  0.025655 -0.000000 -0.000055
  8C   4py       -0.035773  0.003480 -0.008009  0.016522  0.000000  0.001461
  8C   1dz2      -0.003156  0.000000 -0.000474 -0.000011 -0.000000  0.000168
  8C   1dxz      -0.000000  0.000000 -0.000000 -0.000000  0.008161 -0.000000
  8C   1dyz       0.000000  0.000000  0.000000 -0.000000 -0.012483 -0.000000
  8C   1dx2y2    -0.008555  0.010397 -0.003589 -0.019288  0.000000 -0.011590
  8C   1dxy      -0.019536 -0.004552 -0.009390  0.008195  0.000000  0.019042
  9H   1s        -0.081135  0.000005  0.051047 -0.083921  0.000000 -0.056852
  9H   2s        -0.123965  0.000008  0.080551 -0.132424 -0.000000 -0.090511
  9H   3s        -0.030031  0.000002  0.019018 -0.031266  0.000000 -0.032447
  9H   1pz        0.000000  0.000000 -0.000000  0.000000 -0.006708 -0.000000
  9H   1px        0.010319 -0.000304 -0.006948  0.011096  0.000000  0.005266
  9H   1py        0.000572  0.005469  0.002230  0.002207  0.000000 -0.005084
 10H   1s        -0.081135  0.000002  0.047154  0.086167 -0.000000  0.094719
 10H   2s        -0.123965  0.000004  0.074407  0.135969 -0.000000  0.150798
 10H   3s        -0.030031  0.000001  0.017568  0.032103  0.000000  0.054060
 10H   1pz        0.000000 -0.000000 -0.000000 -0.000000 -0.006708 -0.000000
 10H   1px       -0.004664  0.004888  0.000447  0.006499 -0.000000  0.003056
 10H   1py       -0.009223 -0.002471  0.006827  0.009601 -0.000000  0.007746
 11H   1s         0.081134 -0.000002  0.098202  0.002251 -0.000000 -0.037868
 11H   2s         0.123963 -0.000003  0.154958  0.003552  0.000000 -0.060288
 11H   3s         0.030030 -0.000001  0.036586  0.000839 -0.000000 -0.021613
 11H   1pz       -0.000000 -0.000000 -0.000000 -0.000000 -0.006708  0.000000
 11H   1px       -0.005655 -0.004584 -0.007231  0.002393 -0.000000  0.006950
 11H   1py        0.008650 -0.002997  0.010933  0.001923 -0.000000  0.000584
                     18        19        20        21        22        23   
                  -0.49660  -0.33627  -0.33627   0.07027   0.07921   0.07921
                   2.00000   2.00000   2.00000   0.00000   0.00000   0.00000
                  --------  --------  --------  --------  --------  --------
  0C   1s        -0.002204 -0.000000 -0.000000 -0.008447  0.006542 -0.001241
  0C   2s        -0.003744 -0.000000 -0.000000 -0.015369  0.012505 -0.002372
  0C   1pz        0.000000 -0.133781  0.024484  0.000000  0.000000 -0.000000
[...]
11 H  px              3.2       0.0       1.7       0.0       0.0       2.0
11 H  py              6.0       0.0       3.9       0.0       0.0       0.9

                    144       145       146       147       148       149   
                   3.29719   3.29719   3.32942   3.32942   3.49049   3.56856
                   0.00000   0.00000   0.00000   0.00000   0.00000   0.00000
                  --------  --------  --------  --------  --------  --------
 0 C  s               0.0       0.0       0.1       0.2       0.0       0.0
 0 C  pz             28.2       4.7       0.0       0.0      15.6       0.0
 0 C  px              0.0       0.0       0.8       2.3       0.0      11.0
 0 C  py              0.0       0.0       2.4       3.9       0.0       4.7
 0 C  dz2             0.0       0.0       0.2       0.3       0.0       0.0
 0 C  dxz             0.0       0.2       0.0       0.0       0.3       0.0
 0 C  dyz             0.1       0.0       0.0       0.0       0.7       0.0
 0 C  dx2y2           0.0       0.0       0.0       3.2       0.0       0.7
 0 C  dxy             0.0       0.0       5.1       6.6       0.0       0.1
 1 C  s               0.0       0.0       0.2       0.0       0.0       0.0
 1 C  pz              0.6      32.3       0.0       0.0      15.6       0.0
 1 C  px              0.0       0.0       1.7       0.6       0.0      12.6
 1 C  py              0.0       0.0       7.0       0.1       0.0       3.2
 1 C  dz2             0.0       0.0       0.5       0.0       0.0       0.0
 1 C  dxz             0.2       0.0       0.0       0.0       0.2       0.0
 1 C  dyz             0.0       0.1       0.0       0.0       0.8       0.0
 1 C  dx2y2           0.0       0.0       4.5       1.0       0.0       0.5
 1 C  dxy             0.0       0.0       9.1       0.2       0.0       0.3
 2 C  s               0.0       0.0       0.0       0.2       0.0       0.0
 2 C  pz             20.5      12.4       0.0       0.0      15.6       0.0
 2 C  px              0.0       0.0       1.6       7.1       0.0       0.0
 2 C  py              0.0       0.0       0.5       0.1       0.0      15.7
 2 C  dz2             0.0       0.0       0.1       0.4       0.0       0.0
 2 C  dxz             0.0       0.0       0.0       0.0       1.0       0.0
 2 C  dyz             0.1       0.2       0.0       0.0       0.0       0.0
 2 C  dx2y2           0.0       0.0       2.9      10.7       0.0       0.0
 2 C  dxy             0.0       0.0       0.6       0.7       0.0       0.8
 3 H  s               0.0       0.0       6.3       0.0       0.0       0.0
 3 H  px              0.0       0.0       0.2       0.6       0.0       0.1
 3 H  py              0.0       0.0       1.1       0.1       0.0       0.0
 4 C  s               0.0       0.0       0.0       0.2       0.0       0.0
 4 C  pz             20.5      12.4       0.0       0.0      15.6       0.0
 4 C  px              0.0       0.0       1.6       7.1       0.0       0.0
 4 C  py              0.0       0.0       0.5       0.1       0.0      15.7
 4 C  dz2             0.0       0.0       0.1       0.4       0.0       0.0
 4 C  dxz             0.0       0.0       0.0       0.0       1.0       0.0
 4 C  dyz             0.1       0.2       0.0       0.0       0.0       0.0
 4 C  dx2y2           0.0       0.0       2.9      10.7       0.0       0.0
 4 C  dxy             0.0       0.0       0.6       0.7       0.0       0.8
 5 H  s               0.0       0.0       2.0       4.3       0.0       0.0
 5 H  px              0.0       0.0       0.1       0.8       0.0       0.1
 5 H  py              0.0       0.0       0.8       0.3       0.0       0.0
 6 C  s               0.0       0.0       0.2       0.0       0.0       0.0
 6 C  pz              0.6      32.3       0.0       0.0      15.6       0.0
 6 C  px              0.0       0.0       1.7       0.6       0.0      12.6
 6 C  py              0.0       0.0       7.0       0.1       0.0       3.2
 6 C  dz2             0.0       0.0       0.5       0.0       0.0       0.0
 6 C  dxz             0.2       0.0       0.0       0.0       0.2       0.0
 6 C  dyz             0.0       0.1       0.0       0.0       0.8       0.0
 6 C  dx2y2           0.0       0.0       4.5       1.0       0.0       0.5
 6 C  dxy             0.0       0.0       9.1       0.2       0.0       0.3
 7 H  s               0.0       0.0       1.2       5.1       0.0       0.0
 7 H  px              0.0       0.0       0.2       1.1       0.0       0.0
 7 H  py              0.0       0.0       0.6       0.1       0.0       0.1
 8 C  s               0.0       0.0       0.1       0.2       0.0       0.0
 8 C  pz             28.2       4.7       0.0       0.0      15.6       0.0
 8 C  px              0.0       0.0       0.8       2.3       0.0      11.0
 8 C  py              0.0       0.0       2.4       3.9       0.0       4.7
 8 C  dz2             0.0       0.0       0.2       0.3       0.0       0.0
 8 C  dxz             0.0       0.2       0.0       0.0       0.3       0.0
 8 C  dyz             0.1       0.0       0.0       0.0       0.7       0.0
 8 C  dx2y2           0.0       0.0       0.0       3.2       0.0       0.7
 8 C  dxy             0.0       0.0       5.1       6.6       0.0       0.1
 9 H  s               0.0       0.0       1.2       5.1       0.0       0.0
 9 H  px              0.0       0.0       0.2       1.1       0.0       0.0
 9 H  py              0.0       0.0       0.6       0.1       0.0       0.1
10 H  s               0.0       0.0       6.3       0.0       0.0       0.0
10 H  px              0.0       0.0       0.2       0.6       0.0       0.1
10 H  py              0.0       0.0       1.1       0.1       0.0       0.0
11 H  s               0.0       0.0       2.0       4.3       0.0       0.0
11 H  px              0.0       0.0       0.1       0.8       0.0       0.1
11 H  py              0.0       0.0       0.8       0.3       0.0       0.0

                    150       151       152       153       154       155   
                   3.79472   3.79472   3.92478   3.92478   3.93315   4.11999
                   0.00000   0.00000   0.00000   0.00000   0.00000   0.00000
                  --------  --------  --------  --------  --------  --------
 0 C  s               1.8       0.4       0.4       1.2       0.8       0.5
 0 C  px              7.4      10.9       9.7       0.9       3.8       0.7
 0 C  py              0.3       9.8       0.2      14.7       8.8       1.6
 0 C  dz2             0.1       0.0       0.0       0.1       0.0       0.1
 0 C  dx2y2           0.3       0.6       0.4       0.1       0.2       1.7
 0 C  dxy             0.1       0.3       0.2       1.3       0.9       8.7
 1 C  s               0.0       2.2       1.5       0.0       0.8       0.5
 1 C  px             18.8       1.5       3.5       6.1       2.6       0.5
 1 C  py              5.6       2.6      14.5       1.4      10.1       1.9
 1 C  dz2             0.0       0.2       0.1       0.0       0.0       0.1
 1 C  dx2y2           0.6       0.1       0.6       0.1       0.4       3.7
 1 C  dxy             0.4       0.1       1.2       0.1       0.7       6.7
 2 C  s               1.5       0.7       0.4       1.1       0.8       0.5
 2 C  px              3.2       0.8       5.4      12.6      12.6       2.3
 2 C  py              7.4      17.0       4.9       2.6       0.0       0.0
 2 C  dz2             0.1       0.1       0.0       0.1       0.0       0.1
 2 C  dx2y2           0.1       0.1       0.4       1.3       1.0      10.3
 2 C  dxy             0.4       0.6       0.2       0.0       0.0       0.1
 3 H  s               0.0       1.0       3.6       0.0       1.8       3.0
 3 H  px              0.0       0.1       0.1       0.0       0.1       0.1
 3 H  py              0.0       0.2       0.5       0.0       0.3       0.2
 4 C  s               1.5       0.7       0.4       1.1       0.8       0.5
 4 C  px              3.2       0.8       5.4      12.6      12.6       2.3
 4 C  py              7.4      17.0       4.9       2.6       0.0       0.0
 4 C  dz2             0.1       0.1       0.0       0.1       0.0       0.1
 4 C  dx2y2           0.1       0.1       0.4       1.3       1.0      10.3
 4 C  dxy             0.4       0.6       0.2       0.0       0.0       0.1
 5 H  s               0.8       0.2       0.8       2.8       1.8       3.0
 5 H  px              0.1       0.0       0.0       0.2       0.1       0.1
 5 H  py              0.1       0.1       0.1       0.4       0.3       0.2
 6 C  s               0.0       2.2       1.5       0.0       0.8       0.5
 6 C  px             18.8       1.5       3.5       6.1       2.6       0.5
 6 C  py              5.6       2.6      14.5       1.4      10.1       1.9
 6 C  dz2             0.0       0.2       0.1       0.0       0.0       0.1
 6 C  dx2y2           0.6       0.1       0.6       0.1       0.4       3.7
 6 C  dxy             0.4       0.1       1.2       0.1       0.7       6.7
 7 H  s               0.7       0.3       1.0       2.6       1.8       3.0
 7 H  px              0.2       0.1       0.2       0.5       0.4       0.3
 8 C  s               1.8       0.4       0.4       1.2       0.8       0.5
 8 C  px              7.4      10.9       9.7       0.9       3.8       0.7
 8 C  py              0.3       9.8       0.2      14.7       8.8       1.6
 8 C  dz2             0.1       0.0       0.0       0.1       0.0       0.1
 8 C  dx2y2           0.3       0.6       0.4       0.1       0.2       1.7
 8 C  dxy             0.1       0.3       0.2       1.3       0.9       8.7
 9 H  s               0.7       0.3       1.0       2.6       1.8       3.0
 9 H  px              0.2       0.1       0.2       0.5       0.4       0.3
10 H  s               0.0       1.0       3.6       0.0       1.8       3.0
10 H  px              0.0       0.1       0.1       0.0       0.1       0.1
10 H  py              0.0       0.2       0.5       0.0       0.3       0.2
11 H  s               0.8       0.2       0.8       2.8       1.8       3.0
11 H  px              0.1       0.0       0.0       0.2       0.1       0.1
11 H  py              0.1       0.1       0.1       0.4       0.3       0.2

                    156       157       158       159       160       161   
                   4.40724   4.40724   4.51216   4.57605   4.57605   5.29264
                   0.00000   0.00000   0.00000   0.00000   0.00000   0.00000
                  --------  --------  --------  --------  --------  --------
 0 C  s               0.6       0.1       0.6       1.2       0.1       0.0
 0 C  px              2.9       6.0       3.9       0.0      16.3      10.1
 0 C  py             15.3       0.1       9.0       7.1       3.2       4.3
 0 C  dx2y2           0.2       0.7       0.2       0.0       2.2       1.9
 0 C  dxy             2.6       0.1       0.9       1.3       0.1       0.4
 1 C  s               0.0       0.7       0.6       0.7       0.6       0.0
 1 C  px              4.2       3.0       2.6       3.8      14.0      11.5
 1 C  py              0.1      16.9      10.2       8.7       0.1       2.9
 1 C  dx2y2           0.5       0.9       0.4       0.1       1.9       1.4
 1 C  dxy             0.0       2.1       0.7       1.6       0.0       0.8
 2 C  s               0.5       0.3       0.6       0.1       1.2       0.0
 2 C  px             11.9       8.4      12.8       0.6       5.2       0.0
 2 C  py              2.1       1.9       0.0      19.7       1.2      14.4
 2 C  dx2y2           2.0       1.1       1.1       0.0       1.2       0.0
 2 C  dxy             0.1       0.4       0.0       2.4       0.0       2.2
 3 H  s               0.1       3.8       1.6       0.9       0.7       0.0
 3 H  px              0.0       0.2       0.1       0.0       0.0       0.0
 3 H  py              0.0       0.6       0.4       0.0       0.0       0.0
 4 C  s               0.5       0.3       0.6       0.1       1.2       0.0
 4 C  px             11.9       8.4      12.8       0.6       5.2       0.0
 4 C  py              2.1       1.9       0.0      19.7       1.2      14.4
 4 C  dx2y2           2.0       1.1       1.1       0.0       1.2       0.0
 4 C  dxy             0.1       0.4       0.0       2.4       0.0       2.2
 5 H  s               3.4       0.5       1.6       1.5       0.2       0.0
 5 H  px              0.2       0.0       0.2       0.0       0.0       0.0
 5 H  py              0.5       0.1       0.4       0.1       0.0       0.0
 6 C  s               0.0       0.7       0.6       0.7       0.6       0.0
 6 C  px              4.2       3.0       2.6       3.8      14.0      11.5
 6 C  py              0.1      16.9      10.2       8.7       0.1       2.9
 6 C  dx2y2           0.5       0.9       0.4       0.1       1.9       1.4
 6 C  dxy             0.0       2.1       0.7       1.6       0.0       0.8
 7 H  s               2.4       1.5       1.6       0.1       1.6       0.0
 7 H  px              0.5       0.3       0.5       0.0       0.1       0.0
 8 C  s               0.6       0.1       0.6       1.2       0.1       0.0
 8 C  px              2.9       6.0       3.9       0.0      16.3      10.1
 8 C  py             15.3       0.1       9.0       7.1       3.2       4.3
 8 C  dx2y2           0.2       0.7       0.2       0.0       2.2       1.9
 8 C  dxy             2.6       0.1       0.9       1.3       0.1       0.4
 9 H  s               2.4       1.5       1.6       0.1       1.6       0.0
 9 H  px              0.5       0.3       0.5       0.0       0.1       0.0
10 H  s               0.1       3.8       1.6       0.9       0.7       0.0
10 H  px              0.0       0.2       0.1       0.0       0.0       0.0
10 H  py              0.0       0.6       0.4       0.0       0.0       0.0
11 H  s               3.4       0.5       1.6       1.5       0.2       0.0
11 H  px              0.2       0.0       0.2       0.0       0.0       0.0
11 H  py              0.5       0.1       0.4       0.1       0.0       0.0

                    162       163       164       165       166       167   
                  24.75030  25.14802  25.14802  25.29011  25.29011  25.40388
                   0.00000   0.00000   0.00000   0.00000   0.00000   0.00000
                  --------  --------  --------  --------  --------  --------
 0 C  s              16.6      27.0       6.1       5.8      27.3      16.6
 1 C  s              16.6       0.2      32.9      32.9       0.3      16.6
 1 C  px              0.0       0.1       0.0       0.0       0.1       0.0
 2 C  s              16.6      22.4      10.7      11.0      22.2      16.6
 4 C  s              16.6      22.4      10.7      11.0      22.2      16.6
 6 C  s              16.6       0.2      32.9      32.9       0.3      16.6
 6 C  px              0.0       0.1       0.0       0.0       0.1       0.0
 8 C  s              16.6      27.0       6.1       5.8      27.3      16.6



                      *****************************
                      * MAYER POPULATION ANALYSIS *
                      *****************************

  NA   - Mulliken gross atomic population
  ZA   - Total nuclear charge
  QA   - Mulliken gross atomic charge
  VA   - Mayer's total valence
  BVA  - Mayer's bonded valence
  FA   - Mayer's free valence

  ATOM       NA         ZA         QA         VA         BVA        FA
  0 C      6.1331     6.0000    -0.1331     4.0571     4.0571     0.0000
  1 C      6.1331     6.0000    -0.1331     4.0571     4.0571    -0.0000
  2 C      6.1331     6.0000    -0.1331     4.0571     4.0571     0.0000
  3 H      0.8669     1.0000     0.1331     0.9627     0.9627    -0.0000
  4 C      6.1331     6.0000    -0.1331     4.0571     4.0571    -0.0000
  5 H      0.8669     1.0000     0.1331     0.9627     0.9627     0.0000
  6 C      6.1331     6.0000    -0.1331     4.0571     4.0571    -0.0000
  7 H      0.8669     1.0000     0.1331     0.9627     0.9627     0.0000
  8 C      6.1331     6.0000    -0.1331     4.0571     4.0571    -0.0000
  9 H      0.8669     1.0000     0.1331     0.9627     0.9627     0.0000
 10 H      0.8669     1.0000     0.1331     0.9627     0.9627     0.0000
 11 H      0.8669     1.0000     0.1331     0.9627     0.9627     0.0000

  Mayer bond orders larger than 0.100000
B(  0-C ,  1-C ) :   1.5454 B(  0-C ,  4-C ) :   1.5454 B(  0-C ,  5-H ) :   0.9473 
B(  1-C ,  2-C ) :   1.5454 B(  1-C ,  3-H ) :   0.9473 B(  2-C ,  8-C ) :   1.5454 
B(  2-C ,  9-H ) :   0.9473 B(  4-C ,  6-C ) :   1.5454 B(  4-C ,  7-H ) :   0.9473 
B(  6-C ,  8-C ) :   1.5454 B(  6-C , 10-H ) :   0.9473 B(  8-C , 11-H ) :   0.9473 


-------
TIMINGS
-------

Total SCF time: 0 days 0 hours 0 min 21 sec 

Total time                  ....      21.783 sec
Sum of individual times     ....      21.435 sec  ( 98.4%)

Fock matrix formation       ....      21.321 sec  ( 97.9%)
Diagonalization             ....       0.012 sec  (  0.1%)
Density matrix formation    ....       0.001 sec  (  0.0%)
Population analysis         ....       0.045 sec  (  0.2%)
Initial guess               ....       0.011 sec  (  0.1%)
Orbital Transformation      ....       0.000 sec  (  0.0%)
Orbital Orthonormalization  ....       0.007 sec  (  0.0%)
DIIS solution               ....       0.003 sec  (  0.0%)
SOSCF solution              ....       0.041 sec  (  0.2%)

-------------------------   --------------------
FINAL SINGLE POINT ENERGY      -230.756773852099
-------------------------   --------------------

                                *** OPTIMIZATION RUN DONE ***

                            ***************************************
                            *     ORCA property calculations      *
                            ***************************************

                                    ---------------------
                                    Active property flags
                                    ---------------------
   (+) Dipole Moment


------------------------------------------------------------------------------
                       ORCA ELECTRIC PROPERTIES CALCULATION
------------------------------------------------------------------------------

Dipole Moment Calculation                       ... on
Quadrupole Moment Calculation                   ... off
Polarizability Calculation                      ... off
GBWName                                         ... ben.gbw
Electron density file                           ... ben.scfp
The origin for moment calculation is the CENTER OF MASS  = (-10.713852, -1.324928 -0.000000)

-------------
DIPOLE MOMENT
-------------
                                X             Y             Z
Electronic contribution:     -0.00000      -0.00000      -0.00000
Nuclear contribution   :      0.00000       0.00000       0.00000
                        -----------------------------------------
Total Dipole Moment    :      0.00000       0.00000       0.00000
                        -----------------------------------------
Magnitude (a.u.)       :      0.00000
Magnitude (Debye)      :      0.00000



--------------------
Rotational spectrum 
--------------------
 
Rotational constants in cm-1:     0.192513     0.192513     0.096257 
Rotational constants in MHz :  5771.407899  5771.406372  2885.703568 

 Dipole components along the rotational axes: 
x,y,z [a.u.] :     0.000001     0.000000     0.000000 
x,y,z [Debye]:     0.000002     0.000001     0.000000 

 

Timings for individual modules:

Sum of individual times         ...      287.684 sec (=   4.795 min)
GTO integral calculation        ...        2.235 sec (=   0.037 min)   0.8 %
SCF iterations                  ...      187.410 sec (=   3.123 min)  65.1 %
SCF Gradient evaluation         ...       96.750 sec (=   1.613 min)  33.6 %
Geometry relaxation             ...        1.289 sec (=   0.021 min)   0.4 %
                             ****ORCA TERMINATED NORMALLY****
TOTAL RUN TIME: 0 days 0 hours 4 minutes 49 seconds 189 msec
